      -----------------------------------------------------------      
     |                   =====================                   |     
     |                           x T B                           |     
     |                   =====================                   |     
     |                         S. Grimme                         |     
     |          Mulliken Center for Theoretical Chemistry        |     
     |                    University of Bonn                     |     
      -----------------------------------------------------------      

   * xtb version 6.7.1 (edcfbbe) compiled by 'VssAdministrator@runnervmowedg' on 2025-09-04

   xtb is free software: you can redistribute it and/or modify it under
   the terms of the GNU Lesser General Public License as published by
   the Free Software Foundation, either version 3 of the License, or
   (at your option) any later version.
   
   xtb is distributed in the hope that it will be useful,
   but WITHOUT ANY WARRANTY; without even the implied warranty of
   MERCHANTABILITY or FITNESS FOR A PARTICULAR PURPOSE.  See the
   GNU Lesser General Public License for more details.
   
   Cite this work as:
   * C. Bannwarth, E. Caldeweyher, S. Ehlert, A. Hansen, P. Pracht,
     J. Seibert, S. Spicher, S. Grimme, WIREs Comput. Mol. Sci., 2020, 11,
     e01493. DOI: 10.1002/wcms.1493
   
   for GFN2-xTB:
   * C. Bannwarth, S. Ehlert and S. Grimme., J. Chem. Theory Comput., 2019,
     15, 1652-1671. DOI: 10.1021/acs.jctc.8b01176
   for GFN1-xTB:
   * S. Grimme, C. Bannwarth, P. Shushkov, J. Chem. Theory Comput., 2017,
     13, 1989-2009. DOI: 10.1021/acs.jctc.7b00118
   for GFN0-xTB:
   * P. Pracht, E. Caldeweyher, S. Ehlert, S. Grimme, ChemRxiv, 2019, preprint.
     DOI: 10.26434/chemrxiv.8326202.v1
   for GFN-FF:
   * S. Spicher and S. Grimme, Angew. Chem. Int. Ed., 2020, 59, 15665-15673.
     DOI: 10.1002/anie.202004239
   
   for ALPB and GBSA implicit solvation:
   * S. Ehlert, M. Stahn, S. Spicher, S. Grimme, J. Chem. Theory Comput.,
     2021, 17, 4250-4261. DOI: 10.1021/acs.jctc.1c00471
   
   for ddCOSMO and CPCM-X implicit solvation:
   * M. Stahn, S. Ehlert, S. Grimme, J. Phys. Chem. A,
     2023, XX, XXXX-XXXX. DOI: 10.1021/acs.jpca.3c04382
   
   for DFT-D4:
   * E. Caldeweyher, C. Bannwarth and S. Grimme, J. Chem. Phys., 2017,
     147, 034112. DOI: 10.1063/1.4993215
   * E. Caldeweyher, S. Ehlert, A. Hansen, H. Neugebauer, S. Spicher,
     C. Bannwarth and S. Grimme, J. Chem. Phys., 2019, 150, 154122.
     DOI: 10.1063/1.5090222
   * E. Caldeweyher, J.-M. Mewes, S. Ehlert and S. Grimme, Phys. Chem. Chem. Phys.
     2020, 22, 8499-8512. DOI: 10.1039/D0CP00502A
   
   for sTDA-xTB:
   * S. Grimme and C. Bannwarth, J. Chem. Phys., 2016, 145, 054103.
     DOI: 10.1063/1.4959605
   
   in the mass-spec context:
   * V. Asgeirsson, C. Bauer and S. Grimme, Chem. Sci., 2017, 8, 4879.
     DOI: 10.1039/c7sc00601b
   * J. Koopman and S. Grimme, ACS Omega 2019, 4, 12, 15120-15133.
     DOI: 10.1021/acsomega.9b02011
   
   for metadynamics refer to:
   * S. Grimme, J. Chem. Theory Comput., 2019, 155, 2847-2862
     DOI: 10.1021/acs.jctc.9b00143
   
   for SPH calculations refer to:
   * S. Spicher and S. Grimme, J. Chem. Theory Comput., 2021, 17, 1701-1714
     DOI: 10.1021/acs.jctc.0c01306
   
   for ONIOM refer to:
   * C. Plett, A. Katbashev, S. Ehlert, S. Grimme, M. Bursch,
     Phys. Chem. Chem. Phys., 2023, 25, 17860-17868. DOI: 10.1039/D3CP02178E
   
   for DIPRO refer to:
   * J. Kohn, N. Gildemeister, S. Grimme, D. Fazzi, A. Hansen,
     J. Chem. Phys., 2023, just accepted.
   
   for PTB refer to:
   * S. Grimme, M. Mueller, A. Hansen, J. Chem. Phys., 2023, 158, 124111.
     DOI: 10.1063/5.0137838
   
   with help from (in alphabetical order)
   P. Atkinson, C. Bannwarth, F. Bohle, G. Brandenburg, E. Caldeweyher
   M. Checinski, S. Dohm, S. Ehlert, S. Ehrlich, I. Gerasimov, C. Hölzer
   A. Katbashev, J. Kohn, J. Koopman, C. Lavigne, S. Lehtola, F. März, M. Müller,
   F. Musil, H. Neugebauer, J. Pisarek, C. Plett, P. Pracht, F. Pultar,
   J. Seibert, P. Shushkov, S. Spicher, M. Stahn, M. Steiner, T. Strunk,
   J. Stückrath, T. Rose, and J. Unsleber
   
 * started run on 2026/03/05 at 12:40:02.189     
   ID    Z sym.   atoms
    1   40 Zr     1
    2   17 Cl     2, 3
    3    7 N      4
    4    6 C      5-21
    5    1 H      22-36

           -------------------------------------------------
          |                Calculation Setup                |
           -------------------------------------------------

          program call               : xtb final_relax_0.xyz --opt --chrg 0 --uhf 0
          coordinate file            : final_relax_0.xyz
          omp threads                :                    12


molecular fragmentation (1/2 indicates fragments):
111111111111111111111111111111121111
# atoms in fragment 1/2:    35     1
 fragment masses (1/2) :      394.43        1.01
CMA distance (Bohr)    :   6.154
constraining FC (au)   :  0.0500

           -------------------------------------------------
          |                 G F N 2 - x T B                 |
           -------------------------------------------------

        Reference                      10.1021/acs.jctc.8b01176
      * Hamiltonian:
        H0-scaling (s, p, d)           1.850000    2.230000    2.230000
        zeta-weighting                 0.500000
      * Dispersion:
        s8                             2.700000
        a1                             0.520000
        a2                             5.000000
        s9                             5.000000
      * Repulsion:
        kExp                           1.500000    1.000000
        rExp                           1.000000
      * Coulomb:
        alpha                          2.000000
        third order                    shell-resolved
        anisotropic                    true
        a3                             3.000000
        a5                             4.000000
        cn-shift                       1.200000
        cn-exp                         4.000000
        max-rad                        5.000000

q/qsh data taken from xtbrestart
CAMM data taken from xtbrestart

          ...................................................
          :                      SETUP                      :
          :.................................................:
          :  # basis functions                 117          :
          :  # atomic orbitals                 114          :
          :  # shells                           60          :
          :  # electrons                       106          :
          :  max. iterations                   250          :
          :  Hamiltonian                  GFN2-xTB          :
          :  restarted?                       true          :
          :  GBSA solvation                  false          :
          :  PC potential                    false          :
          :  electronic temp.          300.0000000     K    :
          :  accuracy                    1.0000000          :
          :  -> integral cutoff          0.2500000E+02      :
          :  -> integral neglect         0.1000000E-07      :
          :  -> SCF convergence          0.1000000E-05 Eh   :
          :  -> wf. convergence          0.1000000E-03 e    :
          :  Broyden damping             0.4000000          :
          :  net charge                          0          :
          :  unpaired electrons                  0          :
          ...................................................

 iter      E             dE          RMSdq      gap      omega  full diag
   1    -58.1681011 -0.581681E+02  0.992E+00    0.25       0.0  T
   2    -58.2388684 -0.707673E-01  0.721E+00    1.48       1.0  T
   3    -56.5585722  0.168030E+01  0.516E+00    0.17       1.0  T
   4    -58.3790231 -0.182045E+01  0.244E+00    1.71       1.0  T
   5    -58.5444073 -0.165384E+00  0.123E+00    1.76       1.0  T
   6    -58.5860530 -0.416457E-01  0.931E-01    1.09       1.0  T
   7    -58.5991956 -0.131426E-01  0.773E-01    0.74       1.0  T
   8    -58.6173295 -0.181339E-01  0.354E-01    0.19       1.0  T
   9    -58.6138548  0.347471E-02  0.359E-01    0.27       1.0  T
  10    -58.5689587  0.448960E-01  0.869E-01    0.10       1.0  T
  11    -58.6152568 -0.462981E-01  0.246E-01    0.33       1.0  T
  12    -58.6164181 -0.116135E-02  0.198E-01    0.28       1.0  T
  13    -58.6155174  0.900771E-03  0.224E-01    0.31       1.0  T
  14    -58.6160595 -0.542160E-03  0.195E-01    0.30       1.0  T
  15    -58.6175047 -0.144512E-02  0.105E-01    0.24       1.0  T
  16    -58.6176165 -0.111815E-03  0.933E-02    0.24       1.0  T
  17    -58.6180255 -0.408981E-03  0.437E-02    0.21       1.0  T
  18    -58.6180024  0.230257E-04  0.472E-02    0.21       1.0  T
  19    -58.6181224 -0.119938E-03  0.150E-02    0.20       1.1  T
  20    -58.6181175  0.490582E-05  0.171E-02    0.20       1.0  T
  21    -58.6181271 -0.968158E-05  0.111E-02    0.20       1.5  T
  22    -58.6181321 -0.496301E-05  0.641E-03    0.20       2.6  T
  23    -58.6181344 -0.234588E-05  0.169E-03    0.20       9.9  T
  24    -58.6181346 -0.157009E-06  0.510E-04    0.20      32.7  T
  25    -58.6181345  0.624216E-07  0.110E-03    0.20      15.1  T
  26    -58.6181346 -0.371350E-07  0.763E-04    0.20      21.9  T

   *** convergence criteria satisfied after 26 iterations ***

         #    Occupation            Energy/Eh            Energy/eV
      -------------------------------------------------------------
         1        2.0000           -1.0951846             -29.8015
       ...           ...                  ...                  ...
        47        2.0000           -0.4038685             -10.9898
        48        2.0000           -0.3989222             -10.8552
        49        2.0000           -0.3870528             -10.5322
        50        2.0000           -0.3783564             -10.2956
        51        2.0000           -0.3682260             -10.0199
        52        2.0000           -0.3302168              -8.9857
        53        1.9572           -0.3081384              -8.3849 (HOMO)
        54        0.0428           -0.3008753              -8.1872 (LUMO)
        55                         -0.2538619              -6.9079
        56                         -0.2420219              -6.5858
        57                         -0.2354517              -6.4070
        58                         -0.2186777              -5.9505
       ...                                ...                  ...
       114                          3.9173240             106.5958
      -------------------------------------------------------------
                  HL-Gap            0.0072630 Eh            0.1976 eV
             Fermi-level           -0.3045068 Eh           -8.2861 eV

 SCC (total)                   0 d,  0 h,  0 min,  0.230 sec
 SCC setup                      ...        0 min,  0.001 sec (  0.280%)
 Dispersion                     ...        0 min,  0.001 sec (  0.631%)
 classical contributions        ...        0 min,  0.000 sec (  0.102%)
 integral evaluation            ...        0 min,  0.009 sec (  4.107%)
 iterations                     ...        0 min,  0.200 sec ( 86.934%)
 molecular gradient             ...        0 min,  0.018 sec (  7.754%)
 printout                       ...        0 min,  0.000 sec (  0.173%)

         :::::::::::::::::::::::::::::::::::::::::::::::::::::
         ::                     SUMMARY                     ::
         :::::::::::::::::::::::::::::::::::::::::::::::::::::
         :: total energy             -57.508986696291 Eh    ::
         :: gradient norm              0.628876724458 Eh/a0 ::
         :: HOMO-LUMO gap              0.197636675880 eV    ::
         ::.................................................::
         :: SCC energy               -58.616950417783 Eh    ::
         :: -> isotropic ES            0.045334806870 Eh    ::
         :: -> anisotropic ES         -0.000450732286 Eh    ::
         :: -> anisotropic XC          0.016132677827 Eh    ::
         :: -> dispersion             -0.055841003465 Eh    ::
         :: repulsion energy           1.107963721492 Eh    ::
         :: add. restraining           0.000000000000 Eh    ::
         :: total charge               0.000000000004 e     ::
         :::::::::::::::::::::::::::::::::::::::::::::::::::::

      ----------------------------------------------------------- 
     |                   =====================                   |
     |                        A N C O P T                        |
     |                   =====================                   |
     |               Approximate Normal Coordinate               |
     |                Rational Function Optimizer                |
      ----------------------------------------------------------- 
      ----------------------------------------------------------- 
     |                   =====================                   |
     |                        A N C O P T                        |
     |                   =====================                   |
     |               Approximate Normal Coordinate               |
     |                Rational Function Optimizer                |
      ----------------------------------------------------------- 

          ...................................................
          :                      SETUP                      :
          :.................................................:
          :   optimization level            normal          :
          :   max. optcycles                   200          :
          :   ANC micro-cycles                  20          :
          :   degrees of freedom               102          :
          :.................................................:
          :   RF solver                   davidson          :
          :   write xtbopt.log                true          :
          :   linear?                        false          :
          :   energy convergence         0.5000000E-05 Eh   :
          :   grad. convergence          0.1000000E-02 Eh/α :
          :   maxmium RF displ.          1.0000000          :
          :   Hlow (freq-cutoff)         0.1000000E-01      :
          :   Hmax (freq-cutoff)         5.0000000          :
          :   S6 in model hess.         20.0000000          :
          ...................................................

generating ANC from exact Hessian ...
Using Lindh-Hessian (1995)
 Shifting diagonal of input Hessian by    7.9512688834179161E-003
 Lowest  eigenvalues of input Hessian
    0.000000    0.000000    0.000000    0.000000    0.000000    0.000000
    0.010000    0.010836    0.011310    0.014918    0.015688    0.017818
    0.018256    0.021692    0.024498    0.025478    0.026154    0.029085
 Highest eigenvalues
    1.937172    1.938286    1.950185    1.969526    2.002960    2.061717


........................................................................
.............................. CYCLE    1 ..............................
........................................................................

 iter      E             dE          RMSdq      gap      omega  full diag
   1    -58.6181346 -0.586181E+02  0.686E-04    0.20       0.0  T
   2    -58.6181340  0.625684E-06  0.311E-03    0.20       5.4  T
   3    -58.6181346 -0.655003E-06  0.155E-04    0.20     107.7  T
   4    -58.6181346 -0.331539E-10  0.101E-04    0.20     165.6  T
     SCC iter.                  ...        0 min,  0.022 sec
     gradient                   ...        0 min,  0.032 sec
 * total energy  :   -57.5089867 Eh     change       -0.3609057E-07 Eh
   gradient norm :     0.6288765 Eh/α   predicted     0.0000000E+00 (-100.00%)
   displ. norm   :     0.7198270 α      lambda       -0.4202594E+00
   maximum displ.:     0.3117526 α      in ANC's #73, #57, #55, ...

........................................................................
.............................. CYCLE    2 ..............................
........................................................................

 iter      E             dE          RMSdq      gap      omega  full diag
   1    -58.4923386 -0.584923E+02  0.640E-01    0.66       0.0  T
   2    -58.4949178 -0.257917E-02  0.460E-01    0.32       1.0  T
   3    -58.4972927 -0.237492E-02  0.363E-01    0.50       1.0  T
   4    -58.4986063 -0.131355E-02  0.179E-01    0.37       1.0  T
   5    -58.4987122 -0.105946E-03  0.918E-02    0.40       1.0  T
   6    -58.4988497 -0.137518E-03  0.430E-02    0.39       1.0  T
   7    -58.4988557 -0.597038E-05  0.247E-02    0.40       1.0  T
   8    -58.4988638 -0.808514E-05  0.180E-02    0.39       1.0  T
   9    -58.4988665 -0.272742E-05  0.942E-03    0.39       1.8  T
  10    -58.4988674 -0.879073E-06  0.566E-03    0.39       2.9  T
  11    -58.4988678 -0.374956E-06  0.390E-03    0.39       4.3  T
  12    -58.4988679 -0.152589E-06  0.185E-03    0.39       9.0  T
  13    -58.4988680 -0.436566E-07  0.105E-03    0.39      15.9  T
  14    -58.4988680 -0.622058E-08  0.520E-04    0.39      32.1  T
  15    -58.4988680 -0.260820E-08  0.321E-04    0.39      51.9  T
     SCC iter.                  ...        0 min,  0.084 sec
     gradient                   ...        0 min,  0.018 sec
 * total energy  :   -57.6882847 Eh     change       -0.1792979E+00 Eh
   gradient norm :     0.3262400 Eh/α   predicted    -0.3190163E+00 (  77.93%)
   displ. norm   :     0.7297802 α      lambda       -0.2204951E+00
   maximum displ.:     0.3861102 α      in ANC's #57, #55, #51, ...

........................................................................
.............................. CYCLE    3 ..............................
........................................................................

 iter      E             dE          RMSdq      gap      omega  full diag
   1    -58.2586004 -0.582586E+02  0.577E-01    0.61       0.0  T
   2    -58.2590757 -0.475324E-03  0.358E-01    0.57       1.0  T
   3    -58.2579835  0.109227E-02  0.260E-01    0.64       1.0  T
   4    -58.2596444 -0.166095E-02  0.749E-02    0.58       1.0  T
   5    -58.2597605 -0.116093E-03  0.333E-02    0.60       1.0  T
   6    -58.2597682 -0.769158E-05  0.226E-02    0.59       1.0  T
   7    -58.2597727 -0.447926E-05  0.878E-03    0.59       1.9  T
   8    -58.2597738 -0.113442E-05  0.611E-03    0.59       2.7  T
   9    -58.2597740 -0.233781E-06  0.454E-03    0.59       3.7  T
  10    -58.2597743 -0.288747E-06  0.265E-03    0.59       6.3  T
  11    -58.2597744 -0.956685E-07  0.140E-03    0.59      11.9  T
  12    -58.2597745 -0.256580E-07  0.583E-04    0.59      28.6  T
  13    -58.2597745 -0.489988E-08  0.407E-04    0.59      40.9  T
     SCC iter.                  ...        0 min,  0.055 sec
     gradient                   ...        0 min,  0.019 sec
 * total energy  :   -57.6455595 Eh     change        0.4272511E-01 Eh
   gradient norm :     0.2201648 Eh/α   predicted    -0.1689635E+00 (-495.47%)
   displ. norm   :     0.7855089 α      lambda       -0.1692816E+00
   maximum displ.:     0.4289764 α      in ANC's #57, #55, #51, ...

........................................................................
.............................. CYCLE    4 ..............................
........................................................................

 iter      E             dE          RMSdq      gap      omega  full diag
   1    -57.9659500 -0.579660E+02  0.648E-01    0.66       0.0  T
   2    -57.9664483 -0.498296E-03  0.379E-01    0.72       1.0  T
   3    -57.9647266  0.172174E-02  0.281E-01    0.73       1.0  T
   4    -57.9667404 -0.201385E-02  0.852E-02    0.70       1.0  T
   5    -57.9668935 -0.153105E-03  0.369E-02    0.72       1.0  T
   6    -57.9668985 -0.491879E-05  0.259E-02    0.71       1.0  T
   7    -57.9669112 -0.127108E-04  0.975E-03    0.72       1.7  T
   8    -57.9669119 -0.742922E-06  0.700E-03    0.72       2.4  T
   9    -57.9669122 -0.339943E-06  0.545E-03    0.72       3.1  T
  10    -57.9669126 -0.386425E-06  0.348E-03    0.72       4.8  T
  11    -57.9669127 -0.111000E-06  0.210E-03    0.72       7.9  T
  12    -57.9669128 -0.570225E-07  0.107E-03    0.72      15.6  T
  13    -57.9669128 -0.224089E-07  0.599E-04    0.72      27.8  T
  14    -57.9669128 -0.442265E-08  0.367E-04    0.72      45.4  T
     SCC iter.                  ...        0 min,  0.051 sec
     gradient                   ...        0 min,  0.016 sec
 * total energy  :   -57.5074819 Eh     change        0.1380776E+00 Eh
   gradient norm :     0.1589078 Eh/α   predicted    -0.1368662E+00 (-199.12%)
   displ. norm   :     0.7971364 α      lambda       -0.1253652E+00
   maximum displ.:     0.4427156 α      in ANC's #57, #55, #51, ...

........................................................................
.............................. CYCLE    5 ..............................
........................................................................

 iter      E             dE          RMSdq      gap      omega  full diag
   1    -57.6396257 -0.576396E+02  0.685E-01    0.71       0.0  T
   2    -57.6403120 -0.686321E-03  0.396E-01    0.81       1.0  T
   3    -57.6378706  0.244139E-02  0.315E-01    0.80       1.0  T
   4    -57.6404597 -0.258911E-02  0.115E-01    0.78       1.0  T
   5    -57.6408313 -0.371595E-03  0.461E-02    0.80       1.0  T
   6    -57.6408603 -0.290517E-04  0.293E-02    0.80       1.0  T
   7    -57.6408792 -0.188665E-04  0.130E-02    0.80       1.3  T
   8    -57.6408804 -0.120088E-05  0.931E-03    0.80       1.8  T
   9    -57.6408814 -0.102735E-05  0.664E-03    0.80       2.5  T
  10    -57.6408821 -0.661337E-06  0.481E-03    0.80       3.5  T
  11    -57.6408823 -0.233227E-06  0.307E-03    0.80       5.4  T
  12    -57.6408824 -0.846550E-07  0.179E-03    0.80       9.3  T
  13    -57.6408825 -0.505590E-07  0.107E-03    0.80      15.6  T
  14    -57.6408825 -0.126746E-07  0.736E-04    0.80      22.7  T
  15    -57.6408825 -0.486180E-08  0.409E-04    0.80      40.7  T
     SCC iter.                  ...        0 min,  0.055 sec
     gradient                   ...        0 min,  0.016 sec
 * total energy  :   -57.2987667 Eh     change        0.2087153E+00 Eh
   gradient norm :     0.1179918 Eh/α   predicted    -0.1025128E+00 (-149.12%)
   displ. norm   :     0.8004549 α      lambda       -0.9281391E-01
   maximum displ.:     0.4491146 α      in ANC's #57, #55, #51, ...

........................................................................
.............................. CYCLE    6 ..............................
........................................................................

 iter      E             dE          RMSdq      gap      omega  full diag
   1    -57.2885718 -0.572886E+02  0.709E-01    0.74       0.0  T
   2    -57.2893763 -0.804519E-03  0.413E-01    0.88       1.0  T
   3    -57.2850213  0.435501E-02  0.371E-01    0.84       1.0  T
   4    -57.2893562 -0.433493E-02  0.161E-01    0.83       1.0  T
   5    -57.2901625 -0.806251E-03  0.639E-02    0.85       1.0  T
   6    -57.2902728 -0.110335E-03  0.334E-02    0.86       1.0  T
   7    -57.2902951 -0.223096E-04  0.190E-02    0.86       1.0  T
   8    -57.2903013 -0.614056E-05  0.125E-02    0.86       1.3  T
   9    -57.2903028 -0.156541E-05  0.866E-03    0.86       1.9  T
  10    -57.2903037 -0.863253E-06  0.622E-03    0.86       2.7  T
  11    -57.2903042 -0.511949E-06  0.440E-03    0.86       3.8  T
  12    -57.2903044 -0.157116E-06  0.272E-03    0.86       6.1  T
  13    -57.2903045 -0.911583E-07  0.183E-03    0.86       9.1  T
  14    -57.2903045 -0.619700E-07  0.120E-03    0.86      13.9  T
  15    -57.2903045 -0.894288E-08  0.739E-04    0.86      22.6  T
  16    -57.2903045 -0.857152E-08  0.409E-04    0.86      40.7  T
     SCC iter.                  ...        0 min,  0.050 sec
     gradient                   ...        0 min,  0.019 sec
 * total energy  :   -57.0367443 Eh     change        0.2620224E+00 Eh
   gradient norm :     0.0884774 Eh/α   predicted    -0.7614119E-01 (-129.06%)
   displ. norm   :     0.8055211 α      lambda       -0.6945161E-01
   maximum displ.:     0.4557276 α      in ANC's #57, #55, #51, ...

........................................................................
.............................. CYCLE    7 ..............................
........................................................................

 iter      E             dE          RMSdq      gap      omega  full diag
   1    -56.9179950 -0.569180E+02  0.711E-01    0.77       0.0  T
   2    -56.9185098 -0.514828E-03  0.428E-01    0.92       1.0  T
   3    -56.9103229  0.818692E-02  0.459E-01    0.87       1.0  T
   4    -56.9185921 -0.826922E-02  0.207E-01    0.86       1.0  T
   5    -56.9196966 -0.110444E-02  0.103E-01    0.87       1.0  T
   6    -56.9200717 -0.375156E-03  0.394E-02    0.89       1.0  T
   7    -56.9200920 -0.203179E-04  0.283E-02    0.88       1.0  T
   8    -56.9201141 -0.220751E-04  0.151E-02    0.88       1.1  T
   9    -56.9201141 -0.298564E-07  0.124E-02    0.88       1.3  T
  10    -56.9201164 -0.228244E-05  0.845E-03    0.88       2.0  T
  11    -56.9201177 -0.133757E-05  0.585E-03    0.88       2.8  T
  12    -56.9201179 -0.174171E-06  0.417E-03    0.88       4.0  T
  13    -56.9201182 -0.255870E-06  0.285E-03    0.88       5.9  T
  14    -56.9201183 -0.163121E-06  0.173E-03    0.88       9.7  T
  15    -56.9201183 -0.161733E-08  0.143E-03    0.88      11.6  T
  16    -56.9201184 -0.483210E-07  0.680E-04    0.88      24.5  T
  17    -56.9201184 -0.365884E-08  0.416E-04    0.88      40.1  T
     SCC iter.                  ...        0 min,  0.054 sec
     gradient                   ...        0 min,  0.016 sec
 * total energy  :   -56.7331668 Eh     change        0.3035774E+00 Eh
   gradient norm :     0.0660377 Eh/α   predicted    -0.5725812E-01 (-118.86%)
   displ. norm   :     0.8031341 α      lambda       -0.5124709E-01
   maximum displ.:     0.4539822 α      in ANC's #57, #55, #51, ...

........................................................................
.............................. CYCLE    8 ..............................
........................................................................

 iter      E             dE          RMSdq      gap      omega  full diag
   1    -56.5365251 -0.565365E+02  0.684E-01    0.79       0.0  T
   2    -56.5353577  0.116734E-02  0.462E-01    0.91       1.0  T
   3    -56.5217187  0.136391E-01  0.603E-01    0.88       1.0  T
   4    -56.5370502 -0.153315E-01  0.241E-01    0.85       1.0  T
   5    -56.5378264 -0.776195E-03  0.167E-01    0.85       1.0  T
   6    -56.5388779 -0.105150E-02  0.536E-02    0.88       1.0  T
   7    -56.5389401 -0.621881E-04  0.345E-02    0.87       1.0  T
   8    -56.5389739 -0.338086E-04  0.184E-02    0.87       1.0  T
   9    -56.5389680  0.584838E-05  0.195E-02    0.87       1.0  T
  10    -56.5389780 -0.994587E-05  0.107E-02    0.87       1.6  T
  11    -56.5389796 -0.167571E-05  0.772E-03    0.87       2.2  T
  12    -56.5389800 -0.357663E-06  0.613E-03    0.87       2.7  T
  13    -56.5389807 -0.678876E-06  0.382E-03    0.87       4.4  T
  14    -56.5389808 -0.155634E-06  0.291E-03    0.87       5.7  T
  15    -56.5389810 -0.160178E-06  0.196E-03    0.87       8.5  T
  16    -56.5389810 -0.491388E-07  0.131E-03    0.87      12.7  T
  17    -56.5389811 -0.257733E-07  0.872E-04    0.87      19.1  T
  18    -56.5389811 -0.131613E-07  0.493E-04    0.87      33.8  T
     SCC iter.                  ...        0 min,  0.059 sec
     gradient                   ...        0 min,  0.017 sec
 * total energy  :   -56.4011405 Eh     change        0.3320263E+00 Eh
   gradient norm :     0.0482693 Eh/α   predicted    -0.4215135E-01 (-112.70%)
   displ. norm   :     0.7856521 α      lambda       -0.3617987E-01
   maximum displ.:     0.4377514 α      in ANC's #57, #55, #51, ...

........................................................................
.............................. CYCLE    9 ..............................
........................................................................

 iter      E             dE          RMSdq      gap      omega  full diag
   1    -56.1592067 -0.561592E+02  0.642E-01    0.76       0.0  T
   2    -56.1523660  0.684070E-02  0.565E-01    0.81       1.0  T
   3    -56.1445170  0.784901E-02  0.631E-01    0.83       1.0  T
   4    -56.1585820 -0.140649E-01  0.294E-01    0.78       1.0  T
   5    -56.1600043 -0.142237E-02  0.215E-01    0.77       1.0  T
   6    -56.1617756 -0.177131E-02  0.699E-02    0.80       1.0  T
   7    -56.1619125 -0.136880E-03  0.467E-02    0.80       1.0  T
   8    -56.1619656 -0.530670E-04  0.263E-02    0.79       1.0  T
   9    -56.1619506  0.150138E-04  0.288E-02    0.80       1.0  T
  10    -56.1619693 -0.187026E-04  0.180E-02    0.80       1.0  T
  11    -56.1619790 -0.967674E-05  0.109E-02    0.80       1.5  T
  12    -56.1619811 -0.213353E-05  0.683E-03    0.80       2.4  T
  13    -56.1619812 -0.814711E-07  0.572E-03    0.80       2.9  T
  14    -56.1619816 -0.389102E-06  0.450E-03    0.80       3.7  T
  15    -56.1619820 -0.446008E-06  0.286E-03    0.80       5.8  T
  16    -56.1619819  0.128417E-06  0.289E-03    0.80       5.8  T
  17    -56.1619822 -0.305524E-06  0.130E-03    0.80      12.8  T
  18    -56.1619822 -0.200621E-07  0.877E-04    0.80      19.0  T
  19    -56.1619822 -0.155725E-08  0.672E-04    0.80      24.8  T
     SCC iter.                  ...        0 min,  0.063 sec
     gradient                   ...        0 min,  0.017 sec
 * total energy  :   -56.0591350 Eh     change        0.3420055E+00 Eh
   gradient norm :     0.0369877 Eh/α   predicted    -0.2925594E-01 (-108.55%)
   displ. norm   :     0.7830446 α      lambda       -0.2618262E-01
   maximum displ.:     0.4231316 α      in ANC's #57, #55, #51, ...

........................................................................
.............................. CYCLE   10 ..............................
........................................................................

 iter      E             dE          RMSdq      gap      omega  full diag
   1    -55.7878810 -0.557879E+02  0.642E-01    0.62       0.0  T
   2    -55.7672616  0.206194E-01  0.776E-01    0.62       1.0  T
   3    -55.7780446 -0.107830E-01  0.580E-01    0.65       1.0  T
   4    -55.7803685 -0.232387E-02  0.469E-01    0.58       1.0  T
   5    -55.7899020 -0.953357E-02  0.187E-01    0.61       1.0  T
   6    -55.7907905 -0.888419E-03  0.114E-01    0.63       1.0  T
   7    -55.7911793 -0.388823E-03  0.724E-02    0.63       1.0  T
   8    -55.7913075 -0.128213E-03  0.412E-02    0.62       1.0  T
   9    -55.7912306  0.769189E-04  0.522E-02    0.62       1.0  T
  10    -55.7913026 -0.720266E-04  0.295E-02    0.63       1.0  T
  11    -55.7913352 -0.325602E-04  0.141E-02    0.62       1.2  T
  12    -55.7913373 -0.214725E-05  0.112E-02    0.62       1.5  T
  13    -55.7913408 -0.353191E-05  0.622E-03    0.62       2.7  T
  14    -55.7913411 -0.214619E-06  0.540E-03    0.62       3.1  T
  15    -55.7913414 -0.304995E-06  0.447E-03    0.62       3.7  T
  16    -55.7913415 -0.177167E-06  0.356E-03    0.62       4.7  T
  17    -55.7913417 -0.190955E-06  0.287E-03    0.62       5.8  T
  18    -55.7913420 -0.297212E-06  0.142E-03    0.62      11.7  T
  19    -55.7913420  0.287388E-07  0.128E-03    0.62      13.0  T
  20    -55.7913421 -0.724913E-07  0.464E-04    0.62      35.9  T
  21    -55.7913421 -0.560952E-09  0.402E-04    0.62      41.5  T
     SCC iter.                  ...        0 min,  0.070 sec
     gradient                   ...        0 min,  0.017 sec
 * total energy  :   -55.7133204 Eh     change        0.3458146E+00 Eh
   gradient norm :     0.0271369 Eh/α   predicted    -0.2111837E-01 (-106.11%)
   displ. norm   :     0.7359224 α      lambda       -0.1680575E-01
   maximum displ.:     0.3741644 α      in ANC's #57, #55, #51, ...

........................................................................
.............................. CYCLE   11 ..............................
........................................................................

 iter      E             dE          RMSdq      gap      omega  full diag
   1    -55.4539092 -0.554539E+02  0.650E-01    0.37       0.0  T
   2    -55.4118503  0.420589E-01  0.102E+00    0.41       1.0  T
   3    -55.4487254 -0.368751E-01  0.532E-01    0.39       1.0  T
   4    -55.4337481  0.149772E-01  0.657E-01    0.30       1.0  T
   5    -55.4558171 -0.220689E-01  0.260E-01    0.38       1.0  T
   6    -55.4574706 -0.165349E-02  0.177E-01    0.36       1.0  T
   7    -55.4580415 -0.570965E-03  0.144E-01    0.39       1.0  T
   8    -55.4587901 -0.748609E-03  0.649E-02    0.37       1.0  T
   9    -55.4586252  0.164899E-03  0.786E-02    0.37       1.0  T
  10    -55.4587858 -0.160533E-03  0.427E-02    0.38       1.0  T
  11    -55.4588146 -0.288779E-04  0.348E-02    0.37       1.0  T
  12    -55.4588724 -0.577181E-04  0.136E-02    0.37       1.2  T
  13    -55.4588767 -0.429993E-05  0.107E-02    0.37       1.6  T
  14    -55.4588785 -0.183592E-05  0.829E-03    0.37       2.0  T
  15    -55.4588807 -0.217800E-05  0.521E-03    0.37       3.2  T
  16    -55.4588807 -0.651301E-07  0.455E-03    0.37       3.7  T
  17    -55.4588811 -0.351317E-06  0.338E-03    0.37       4.9  T
  18    -55.4588812 -0.986502E-07  0.276E-03    0.37       6.0  T
  19    -55.4588813 -0.909765E-07  0.233E-03    0.37       7.1  T
  20    -55.4588815 -0.182806E-06  0.118E-03    0.37      14.1  T
  21    -55.4588815 -0.482393E-07  0.639E-04    0.37      26.1  T
  22    -55.4588815 -0.493515E-09  0.621E-04    0.37      26.8  T
     SCC iter.                  ...        0 min,  0.076 sec
     gradient                   ...        0 min,  0.017 sec
 * total energy  :   -55.3973798 Eh     change        0.3159406E+00 Eh
   gradient norm :     0.0194262 Eh/α   predicted    -0.1295374E-01 (-104.10%)
   displ. norm   :     0.7353710 α      lambda       -0.1177709E-01
   maximum displ.:     0.3495972 α      in ANC's #57, #55, #51, ...

........................................................................
.............................. CYCLE   12 ..............................
........................................................................

 iter      E             dE          RMSdq      gap      omega  full diag
   1    -55.1226612 -0.551227E+02  0.970E-01    0.09       0.0  T
   2    -54.7612749  0.361386E+00  0.232E+00    0.28       1.0  T
   3    -55.1432985 -0.382024E+00  0.559E-01    0.20       1.0  T
   4    -55.1141409  0.291576E-01  0.873E-01    0.11       1.0  T
   5    -55.1230017 -0.886086E-02  0.664E-01    0.08       1.0  T
   6    -55.1412038 -0.182020E-01  0.472E-01    0.18       1.0  T
   7    -55.1507158 -0.951204E-02  0.262E-01    0.13       1.0  T
   8    -55.1518149 -0.109907E-02  0.249E-01    0.14       1.0  T
   9    -55.1536803 -0.186541E-02  0.150E-01    0.15       1.0  T
  10    -55.1537551 -0.748603E-04  0.139E-01    0.14       1.0  T
  11    -55.1541118 -0.356702E-03  0.991E-02    0.13       1.0  T
  12    -55.1545214 -0.409524E-03  0.565E-02    0.13       1.0  T
  13    -55.1546039 -0.824866E-04  0.345E-02    0.13       1.0  T
  14    -55.1546666 -0.627600E-04  0.225E-02    0.14       1.0  T
  15    -55.1546773 -0.106597E-04  0.179E-02    0.14       1.0  T
  16    -55.1546874 -0.101022E-04  0.116E-02    0.14       1.4  T
  17    -55.1546927 -0.528606E-05  0.768E-03    0.13       2.2  T
  18    -55.1546934 -0.724588E-06  0.584E-03    0.14       2.9  T
  19    -55.1546942 -0.845937E-06  0.412E-03    0.13       4.0  T
  20    -55.1546944 -0.155620E-06  0.357E-03    0.14       4.7  T
  21    -55.1546945 -0.128796E-06  0.322E-03    0.14       5.2  T
  22    -55.1546948 -0.286327E-06  0.239E-03    0.14       7.0  T
  23    -55.1546951 -0.280709E-06  0.121E-03    0.14      13.8  T
  24    -55.1546950  0.614360E-07  0.140E-03    0.14      11.9  T
  25    -55.1546951 -0.894788E-07  0.742E-04    0.14      22.5  T
  26    -55.1546951 -0.155692E-07  0.514E-04    0.14      32.4  T
     SCC iter.                  ...        0 min,  0.087 sec
     gradient                   ...        0 min,  0.019 sec
 * total energy  :   -55.1048326 Eh     change        0.2925471E+00 Eh
   gradient norm :     0.0152290 Eh/α   predicted    -0.9072921E-02 (-103.10%)
   displ. norm   :     0.7586328 α      lambda       -0.8926213E-02
   maximum displ.:     0.3325941 α      in ANC's #57, #55, #51, ...

........................................................................
.............................. CYCLE   13 ..............................
........................................................................

 iter      E             dE          RMSdq      gap      omega  full diag
   1    -54.7918334 -0.547918E+02  0.149E+00    0.14       0.0  T
   2    -52.3772669  0.241457E+01  0.497E+00    0.19       1.0  T
   3    -54.7072722 -0.233001E+01  0.177E+00    0.05       1.0  T
   4    -54.6504201  0.568521E-01  0.183E+00    0.05       1.0  T
   5    -54.6565196 -0.609945E-02  0.187E+00    0.09       1.0  T
   6    -54.8061280 -0.149608E+00  0.112E+00    0.03       1.0  T
   7    -54.8715275 -0.653996E-01  0.580E-01    0.05       1.0  T
   8    -54.8698715  0.165609E-02  0.572E-01    0.02       1.0  T
   9    -54.8688404  0.103108E-02  0.548E-01    0.05       1.0  T
  10    -54.8726897 -0.384932E-02  0.438E-01    0.01       1.0  T
  11    -54.8778403 -0.515066E-02  0.354E-01    0.03       1.0  T
  12    -54.8783794 -0.539083E-03  0.349E-01    0.01       1.0  T
  13    -54.8833100 -0.493055E-02  0.185E-01    0.02       1.0  T
  14    -54.8839965 -0.686552E-03  0.157E-01    0.02       1.0  T
  15    -54.8849518 -0.955276E-03  0.108E-01    0.02       1.0  T
  16    -54.8851852 -0.233347E-03  0.714E-02    0.02       1.0  T
  17    -54.8853931 -0.207941E-03  0.419E-02    0.02       1.0  T
  18    -54.8854817 -0.886467E-04  0.203E-02    0.02       1.0  T
  19    -54.8854854 -0.363913E-05  0.170E-02    0.03       1.0  T
  20    -54.8854979 -0.125587E-04  0.112E-02    0.03       1.5  T
  21    -54.8854982 -0.245815E-06  0.970E-03    0.03       1.7  T
  22    -54.8854944  0.375610E-05  0.108E-02    0.02       1.5  T
  23    -54.8855022 -0.773520E-05  0.495E-03    0.02       3.4  T
  24    -54.8855011  0.107830E-05  0.567E-03    0.02       2.9  T
  25    -54.8855023 -0.124077E-05  0.378E-03    0.02       4.4  T
  26    -54.8855027 -0.392118E-06  0.286E-03    0.02       5.8  T
  27    -54.8855029 -0.224208E-06  0.206E-03    0.02       8.1  T
  28    -54.8855031 -0.189939E-06  0.929E-04    0.02      17.9  T
  29    -54.8855031  0.526782E-07  0.111E-03    0.02      15.1  T
  30    -54.8855031 -0.523509E-07  0.718E-04    0.02      23.2  T
     SCC iter.                  ...        0 min,  0.113 sec
     gradient                   ...        0 min,  0.016 sec
 * total energy  :   -54.8436926 Eh     change        0.2611401E+00 Eh
   gradient norm :     0.0133516 Eh/α   predicted    -0.7031769E-02 (-102.69%)
   displ. norm   :     0.7593686 α      lambda       -0.6769240E-02
   maximum displ.:     0.3014475 α      in ANC's #57, #55, #8, ...

........................................................................
.............................. CYCLE   14 ..............................
........................................................................

 iter      E             dE          RMSdq      gap      omega  full diag
   1    -54.6343911 -0.546344E+02  0.110E+00    0.13       0.0  T
   2    -53.0871242  0.154727E+01  0.398E+00    0.21       1.0  T
   3    -54.5165224 -0.142940E+01  0.146E+00    0.17       1.0  T
   4    -54.5016597  0.148627E-01  0.158E+00    0.14       1.0  T
   5    -54.3260771  0.175583E+00  0.207E+00    0.19       1.0  T
   6    -54.6005670 -0.274490E+00  0.104E+00    0.15       1.0  T
   7    -54.6527089 -0.521419E-01  0.521E-01    0.17       1.0  T
   8    -54.6525330  0.175937E-03  0.482E-01    0.14       1.0  T
   9    -54.6556086 -0.307559E-02  0.483E-01    0.18       1.0  T
  10    -54.6584898 -0.288125E-02  0.367E-01    0.15       1.0  T
  11    -54.6614530 -0.296324E-02  0.355E-01    0.18       1.0  T
  12    -54.6660032 -0.455017E-02  0.218E-01    0.15       1.0  T
  13    -54.6672741 -0.127090E-02  0.129E-01    0.14       1.0  T
  14    -54.6672815 -0.742629E-05  0.133E-01    0.15       1.0  T
  15    -54.6676701 -0.388598E-03  0.122E-01    0.15       1.0  T
  16    -54.6681680 -0.497825E-03  0.793E-02    0.15       1.0  T
  17    -54.6680150  0.152972E-03  0.871E-02    0.15       1.0  T
  18    -54.6683987 -0.383758E-03  0.443E-02    0.15       1.0  T
  19    -54.6685128 -0.114079E-03  0.165E-02    0.15       1.0  T
  20    -54.6685116  0.124501E-05  0.158E-02    0.15       1.1  T
  21    -54.6685118 -0.198222E-06  0.144E-02    0.15       1.2  T
  22    -54.6684893  0.225263E-04  0.192E-02    0.15       1.0  T
  23    -54.6685210 -0.317783E-04  0.654E-03    0.15       2.5  T
  24    -54.6685184  0.262037E-05  0.799E-03    0.15       2.1  T
  25    -54.6685209 -0.246729E-05  0.598E-03    0.15       2.8  T
  26    -54.6685223 -0.140177E-05  0.338E-03    0.15       4.9  T
  27    -54.6685230 -0.674202E-06  0.229E-03    0.15       7.3  T
  28    -54.6685231 -0.133198E-06  0.160E-03    0.15      10.4  T
  29    -54.6685231 -0.352511E-07  0.136E-03    0.15      12.3  T
  30    -54.6685232 -0.431787E-07  0.101E-03    0.15      16.5  T
  31    -54.6685232 -0.382562E-07  0.607E-04    0.15      27.5  T
  32    -54.6685232 -0.136652E-07  0.393E-04    0.15      42.5  T
     SCC iter.                  ...        0 min,  0.114 sec
     gradient                   ...        0 min,  0.015 sec
 * total energy  :   -54.6315868 Eh     change        0.2121058E+00 Eh
   gradient norm :     0.0119890 Eh/α   predicted    -0.5336386E-02 (-102.52%)
   displ. norm   :     0.6000393 α      lambda       -0.3573605E-02
   maximum displ.:     0.2269013 α      in ANC's #8, #57, #55, ...

........................................................................
.............................. CYCLE   15 ..............................
........................................................................

 iter      E             dE          RMSdq      gap      omega  full diag
   1    -54.5038479 -0.545038E+02  0.901E-01    0.13       0.0  T
   2    -52.5691731  0.193467E+01  0.432E+00    0.10       1.0  T
   3    -54.4448085 -0.187564E+01  0.120E+00    0.22       1.0  T
   4    -54.4301464  0.146620E-01  0.132E+00    0.04       1.0  T
   5    -54.3830955  0.470509E-01  0.139E+00    0.13       1.0  T
   6    -54.5218163 -0.138721E+00  0.487E-01    0.11       1.0  T
   7    -54.5155660  0.625031E-02  0.532E-01    0.13       1.0  T
   8    -54.5261136 -0.105476E-01  0.393E-01    0.13       1.0  T
   9    -54.5316720 -0.555836E-02  0.268E-01    0.12       1.0  T
  10    -54.5333567 -0.168469E-02  0.238E-01    0.12       1.0  T
  11    -54.5330026  0.354108E-03  0.227E-01    0.12       1.0  T
  12    -54.5355225 -0.251988E-02  0.143E-01    0.11       1.0  T
  13    -54.5361924 -0.669900E-03  0.821E-02    0.11       1.0  T
  14    -54.5365185 -0.326146E-03  0.657E-02    0.11       1.0  T
  15    -54.5366223 -0.103808E-03  0.533E-02    0.11       1.0  T
  16    -54.5367097 -0.874001E-04  0.326E-02    0.11       1.0  T
  17    -54.5367066  0.315516E-05  0.284E-02    0.11       1.0  T
  18    -54.5367341 -0.274868E-04  0.216E-02    0.11       1.0  T
  19    -54.5367566 -0.225568E-04  0.142E-02    0.11       1.2  T
  20    -54.5367649 -0.833625E-05  0.942E-03    0.11       1.8  T
  21    -54.5367651 -0.163917E-06  0.808E-03    0.11       2.1  T
  22    -54.5367654 -0.285667E-06  0.791E-03    0.11       2.1  T
  23    -54.5367683 -0.289117E-05  0.479E-03    0.11       3.5  T
  24    -54.5367680  0.252860E-06  0.430E-03    0.11       3.9  T
  25    -54.5367689 -0.906466E-06  0.332E-03    0.11       5.0  T
  26    -54.5367691 -0.127102E-06  0.249E-03    0.11       6.7  T
  27    -54.5367694 -0.355277E-06  0.136E-03    0.11      12.2  T
  28    -54.5367694  0.257620E-07  0.119E-03    0.11      14.0  T
  29    -54.5367695 -0.541868E-07  0.856E-04    0.11      19.5  T
  30    -54.5367695 -0.189520E-07  0.540E-04    0.11      30.9  T
     SCC iter.                  ...        0 min,  0.106 sec
     gradient                   ...        0 min,  0.016 sec
 * total energy  :   -54.5015164 Eh     change        0.1300704E+00 Eh
   gradient norm :     0.0115632 Eh/α   predicted    -0.2430139E-02 (-101.87%)
   displ. norm   :     0.6567966 α      lambda       -0.3256768E-02
   maximum displ.:     0.2980280 α      in ANC's #8, #57, #55, ...

........................................................................
.............................. CYCLE   16 ..............................
........................................................................

 iter      E             dE          RMSdq      gap      omega  full diag
   1    -54.3653804 -0.543654E+02  0.109E+00    0.15       0.0  T
   2    -51.9229153  0.244247E+01  0.480E+00    0.10       1.0  T
   3    -54.1698391 -0.224692E+01  0.178E+00    0.20       1.0  T
   4    -54.2793005 -0.109461E+00  0.131E+00    0.08       1.0  T
   5    -54.2105546  0.687459E-01  0.152E+00    0.04       1.0  T
   6    -54.3851063 -0.174552E+00  0.661E-01    0.11       1.0  T
   7    -54.3935070 -0.840072E-02  0.596E-01    0.12       1.0  T
   8    -54.3903482  0.315875E-02  0.552E-01    0.08       1.0  T
   9    -54.3942879 -0.393967E-02  0.532E-01    0.13       1.0  T
  10    -54.4046424 -0.103545E-01  0.398E-01    0.10       1.0  T
  11    -54.4071748 -0.253245E-02  0.309E-01    0.12       1.0  T
  12    -54.4089213 -0.174650E-02  0.237E-01    0.10       1.0  T
  13    -54.4125830 -0.366163E-02  0.144E-01    0.10       1.0  T
  14    -54.4132062 -0.623200E-03  0.103E-01    0.09       1.0  T
  15    -54.4136190 -0.412791E-03  0.687E-02    0.09       1.0  T
  16    -54.4136638 -0.448638E-04  0.573E-02    0.09       1.0  T
  17    -54.4135791  0.847169E-04  0.516E-02    0.09       1.0  T
  18    -54.4137194 -0.140299E-03  0.410E-02    0.09       1.0  T
  19    -54.4137774 -0.579593E-04  0.250E-02    0.09       1.0  T
  20    -54.4138049 -0.275765E-04  0.184E-02    0.09       1.0  T
  21    -54.4138144 -0.949445E-05  0.139E-02    0.09       1.2  T
  22    -54.4138140  0.478682E-06  0.138E-02    0.09       1.2  T
  23    -54.4138074  0.655190E-05  0.143E-02    0.09       1.2  T
  24    -54.4138193 -0.118519E-04  0.839E-03    0.09       2.0  T
  25    -54.4138208 -0.154818E-05  0.619E-03    0.09       2.7  T
  26    -54.4138210 -0.158302E-06  0.582E-03    0.09       2.9  T
  27    -54.4138223 -0.137472E-05  0.345E-03    0.09       4.8  T
  28    -54.4138223 -0.380840E-08  0.283E-03    0.09       5.9  T
  29    -54.4138226 -0.234977E-06  0.205E-03    0.09       8.1  T
  30    -54.4138227 -0.766909E-07  0.204E-03    0.09       8.2  T
  31    -54.4138228 -0.129943E-06  0.102E-03    0.09      16.3  T
  32    -54.4138228 -0.231414E-07  0.706E-04    0.09      23.6  T
  33    -54.4138228 -0.111555E-07  0.640E-04    0.09      26.0  T
     SCC iter.                  ...        0 min,  0.113 sec
     gradient                   ...        0 min,  0.018 sec
 * total energy  :   -54.3796234 Eh     change        0.1218930E+00 Eh
   gradient norm :     0.0124236 Eh/α   predicted    -0.2330840E-02 (-101.91%)
   displ. norm   :     0.6501341 α      lambda       -0.2829350E-02
   maximum displ.:     0.3152724 α      in ANC's #8, #1, #27, ...

........................................................................
.............................. CYCLE   17 ..............................
........................................................................

 iter      E             dE          RMSdq      gap      omega  full diag
   1    -54.2710134 -0.542710E+02  0.103E+00    0.16       0.0  T
   2    -52.3320058  0.193901E+01  0.444E+00    0.01       1.0  T
   3    -54.1179340 -0.178593E+01  0.148E+00    0.16       1.0  T
   4    -54.1675539 -0.496200E-01  0.137E+00    0.18       1.0  T
   5    -54.2096852 -0.421313E-01  0.116E+00    0.06       1.0  T
   6    -54.2732984 -0.636132E-01  0.727E-01    0.17       1.0  T
   7    -54.2638504  0.944798E-02  0.755E-01    0.10       1.0  T
   8    -54.2872482 -0.233978E-01  0.583E-01    0.09       1.0  T
   9    -54.3065539 -0.193057E-01  0.275E-01    0.10       1.0  T
  10    -54.3045452  0.200867E-02  0.310E-01    0.10       1.0  T
  11    -54.3063481 -0.180291E-02  0.236E-01    0.11       1.0  T
  12    -54.3046388  0.170926E-02  0.243E-01    0.11       1.0  T
  13    -54.3091188 -0.448000E-02  0.110E-01    0.10       1.0  T
  14    -54.3096046 -0.485722E-03  0.852E-02    0.10       1.0  T
  15    -54.3099515 -0.346930E-03  0.414E-02    0.10       1.0  T
  16    -54.3099997 -0.481856E-04  0.343E-02    0.10       1.0  T
  17    -54.3099646  0.350566E-04  0.331E-02    0.09       1.0  T
  18    -54.3100146 -0.499618E-04  0.240E-02    0.10       1.0  T
  19    -54.3100088  0.580599E-05  0.248E-02    0.10       1.0  T
  20    -54.3100281 -0.193269E-04  0.170E-02    0.10       1.0  T
  21    -54.3100352 -0.713192E-05  0.152E-02    0.10       1.1  T
  22    -54.3100341  0.117066E-05  0.150E-02    0.10       1.1  T
  23    -54.3100424 -0.829088E-05  0.801E-03    0.10       2.1  T
  24    -54.3100433 -0.917436E-06  0.721E-03    0.10       2.3  T
  25    -54.3100457 -0.243804E-05  0.496E-03    0.10       3.4  T
  26    -54.3100462 -0.463745E-06  0.334E-03    0.10       5.0  T
  27    -54.3100463 -0.996467E-07  0.273E-03    0.10       6.1  T
  28    -54.3100464 -0.121601E-06  0.182E-03    0.10       9.2  T
  29    -54.3100465 -0.148609E-06  0.126E-03    0.10      13.2  T
  30    -54.3100466 -0.872285E-08  0.105E-03    0.10      15.9  T
  31    -54.3100466 -0.160576E-08  0.866E-04    0.10      19.2  T
  32    -54.3100466 -0.413472E-07  0.538E-04    0.10      31.0  T
     SCC iter.                  ...        0 min,  0.106 sec
     gradient                   ...        0 min,  0.017 sec
 * total energy  :   -54.2765356 Eh     change        0.1030878E+00 Eh
   gradient norm :     0.0129340 Eh/α   predicted    -0.2012655E-02 (-101.95%)
   displ. norm   :     0.6355058 α      lambda       -0.2377718E-02
   maximum displ.:     0.3063897 α      in ANC's #8, #1, #27, ...

........................................................................
.............................. CYCLE   18 ..............................
........................................................................

 iter      E             dE          RMSdq      gap      omega  full diag
   1    -54.1909722 -0.541910E+02  0.893E-01    0.14       0.0  T
   2    -52.8012874  0.138968E+01  0.391E+00    0.10       1.0  T
   3    -54.0380190 -0.123673E+01  0.144E+00    0.13       1.0  T
   4    -54.0704494 -0.324304E-01  0.137E+00    0.21       1.0  T
   5    -54.1781341 -0.107685E+00  0.777E-01    0.08       1.0  T
   6    -54.1820214 -0.388727E-02  0.765E-01    0.15       1.0  T
   7    -54.1901194 -0.809795E-02  0.635E-01    0.15       1.0  T
   8    -54.2072090 -0.170897E-01  0.425E-01    0.10       1.0  T
   9    -54.2105602 -0.335118E-02  0.357E-01    0.13       1.0  T
  10    -54.2099072  0.652979E-03  0.374E-01    0.11       1.0  T
  11    -54.2155605 -0.565324E-02  0.207E-01    0.12       1.0  T
  12    -54.2187861 -0.322561E-02  0.987E-02    0.11       1.0  T
  13    -54.2191220 -0.335952E-03  0.658E-02    0.11       1.0  T
  14    -54.2191527 -0.306926E-04  0.507E-02    0.11       1.0  T
  15    -54.2191523  0.443791E-06  0.430E-02    0.11       1.0  T
  16    -54.2189345  0.217784E-03  0.589E-02    0.11       1.0  T
  17    -54.2191441 -0.209567E-03  0.345E-02    0.11       1.0  T
  18    -54.2192144 -0.702791E-04  0.188E-02    0.11       1.0  T
  19    -54.2192296 -0.152772E-04  0.123E-02    0.11       1.4  T
  20    -54.2192270  0.264926E-05  0.136E-02    0.11       1.2  T
  21    -54.2192318 -0.484109E-05  0.992E-03    0.11       1.7  T
  22    -54.2192293  0.250341E-05  0.102E-02    0.11       1.6  T
  23    -54.2192342 -0.490521E-05  0.604E-03    0.11       2.8  T
  24    -54.2192357 -0.148206E-05  0.358E-03    0.11       4.7  T
  25    -54.2192348  0.904208E-06  0.457E-03    0.11       3.6  T
  26    -54.2192360 -0.115955E-05  0.186E-03    0.11       9.0  T
  27    -54.2192359  0.504086E-07  0.196E-03    0.11       8.5  T
  28    -54.2192361 -0.236003E-06  0.114E-03    0.11      14.6  T
  29    -54.2192362 -0.147826E-07  0.884E-04    0.11      18.9  T
  30    -54.2192362 -0.382764E-07  0.585E-04    0.11      28.5  T
     SCC iter.                  ...        0 min,  0.103 sec
     gradient                   ...        0 min,  0.018 sec
 * total energy  :   -54.1858251 Eh     change        0.9071051E-01 Eh
   gradient norm :     0.0146661 Eh/α   predicted    -0.1669004E-02 (-101.84%)
   displ. norm   :     0.7363916 α      lambda       -0.3026112E-02
   maximum displ.:     0.3354189 α      in ANC's #8, #1, #27, ...

........................................................................
.............................. CYCLE   19 ..............................
........................................................................

 iter      E             dE          RMSdq      gap      omega  full diag
   1    -54.0840542 -0.540841E+02  0.936E-01    0.08       0.0  T
   2    -52.5361663  0.154789E+01  0.411E+00    0.16       1.0  T
   3    -53.9194500 -0.138328E+01  0.156E+00    0.12       1.0  T
   4    -53.8811953  0.382547E-01  0.174E+00    0.19       1.0  T
   5    -54.0704321 -0.189237E+00  0.772E-01    0.06       1.0  T
   6    -54.0411840  0.292481E-01  0.973E-01    0.20       1.0  T
   7    -54.0822359 -0.410519E-01  0.663E-01    0.09       1.0  T
   8    -54.1038544 -0.216186E-01  0.466E-01    0.10       1.0  T
   9    -54.0952842  0.857020E-02  0.503E-01    0.16       1.0  T
  10    -54.1078073 -0.125230E-01  0.359E-01    0.09       1.0  T
  11    -54.1100862 -0.227898E-02  0.297E-01    0.11       1.0  T
  12    -54.1148754 -0.478918E-02  0.174E-01    0.10       1.0  T
  13    -54.1158988 -0.102336E-02  0.159E-01    0.11       1.0  T
  14    -54.1166846 -0.785822E-03  0.930E-02    0.10       1.0  T
  15    -54.1165375  0.147132E-03  0.887E-02    0.10       1.0  T
  16    -54.1168160 -0.278499E-03  0.609E-02    0.10       1.0  T
  17    -54.1169606 -0.144683E-03  0.444E-02    0.10       1.0  T
  18    -54.1170185 -0.578349E-04  0.289E-02    0.10       1.0  T
  19    -54.1170363 -0.178173E-04  0.230E-02    0.10       1.0  T
  20    -54.1170519 -0.155696E-04  0.160E-02    0.10       1.0  T
  21    -54.1170523 -0.401249E-06  0.140E-02    0.10       1.2  T
  22    -54.1170614 -0.913303E-05  0.879E-03    0.10       1.9  T
  23    -54.1170644 -0.297170E-05  0.633E-03    0.10       2.6  T
  24    -54.1170632  0.120124E-05  0.685E-03    0.10       2.4  T
  25    -54.1170638 -0.665255E-06  0.587E-03    0.10       2.8  T
  26    -54.1170648 -0.980076E-06  0.398E-03    0.10       4.2  T
  27    -54.1170661 -0.123511E-05  0.196E-03    0.10       8.5  T
  28    -54.1170661 -0.312329E-07  0.164E-03    0.10      10.2  T
  29    -54.1170660  0.414383E-07  0.161E-03    0.10      10.4  T
  30    -54.1170662 -0.104212E-06  0.113E-03    0.10      14.7  T
  31    -54.1170662 -0.702202E-07  0.627E-04    0.10      26.6  T
  32    -54.1170662 -0.250526E-08  0.471E-04    0.10      35.4  T
     SCC iter.                  ...        0 min,  0.125 sec
     gradient                   ...        0 min,  0.023 sec
 * total energy  :   -54.0837030 Eh     change        0.1021221E+00 Eh
   gradient norm :     0.0177552 Eh/α   predicted    -0.2333631E-02 (-102.29%)
   displ. norm   :     0.6810031 α      lambda       -0.3827922E-02
   maximum displ.:     0.2517064 α      in ANC's #8, #14, #27, ...

........................................................................
.............................. CYCLE   20 ..............................
........................................................................

 iter      E             dE          RMSdq      gap      omega  full diag
   1    -53.9356816 -0.539357E+02  0.126E+00    0.04       0.0  T
   2    -48.4095804  0.552610E+01  0.667E+00    0.02       1.0  T
   3    -53.6298222 -0.522024E+01  0.224E+00    0.18       1.0  T
   4    -53.3680074  0.261815E+00  0.280E+00    0.10       1.0  T
   5    -53.8983970 -0.530390E+00  0.135E+00    0.14       1.0  T
   6    -53.9885702 -0.901732E-01  0.744E-01    0.05       1.0  T
   7    -53.9794535  0.911661E-02  0.835E-01    0.16       1.0  T
   8    -54.0196279 -0.401744E-01  0.448E-01    0.09       1.0  T
   9    -54.0225555 -0.292760E-02  0.418E-01    0.06       1.0  T
  10    -54.0047369  0.178187E-01  0.617E-01    0.12       1.0  T
  11    -54.0264722 -0.217354E-01  0.303E-01    0.09       1.0  T
  12    -54.0302863 -0.381407E-02  0.231E-01    0.09       1.0  T
  13    -54.0313681 -0.108183E-02  0.197E-01    0.10       1.0  T
  14    -54.0313631  0.496783E-05  0.210E-01    0.09       1.0  T
  15    -54.0320916 -0.728488E-03  0.168E-01    0.10       1.0  T
  16    -54.0330785 -0.986886E-03  0.118E-01    0.09       1.0  T
  17    -54.0333984 -0.319916E-03  0.854E-02    0.08       1.0  T
  18    -54.0335969 -0.198458E-03  0.624E-02    0.09       1.0  T
  19    -54.0337189 -0.121971E-03  0.484E-02    0.08       1.0  T
  20    -54.0338204 -0.101485E-03  0.310E-02    0.09       1.0  T
  21    -54.0338653 -0.449279E-04  0.156E-02    0.09       1.1  T
  22    -54.0338687 -0.346216E-05  0.131E-02    0.09       1.3  T
  23    -54.0338735 -0.478069E-05  0.104E-02    0.09       1.6  T
  24    -54.0338748 -0.127436E-05  0.980E-03    0.09       1.7  T
  25    -54.0338759 -0.106760E-05  0.840E-03    0.09       2.0  T
  26    -54.0338769 -0.988639E-06  0.569E-03    0.09       2.9  T
  27    -54.0338783 -0.143044E-05  0.375E-03    0.09       4.4  T
  28    -54.0338783 -0.586388E-07  0.329E-03    0.09       5.1  T
  29    -54.0338790 -0.705259E-06  0.111E-03    0.09      15.0  T
  30    -54.0338790  0.900859E-07  0.160E-03    0.09      10.4  T
  31    -54.0338791 -0.128844E-06  0.976E-04    0.09      17.1  T
  32    -54.0338791  0.891098E-08  0.939E-04    0.09      17.7  T
     SCC iter.                  ...        0 min,  0.149 sec
     gradient                   ...        0 min,  0.020 sec
 * total energy  :   -54.0009663 Eh     change        0.8273669E-01 Eh
   gradient norm :     0.0174709 Eh/α   predicted    -0.2801597E-02 (-103.39%)
   displ. norm   :     0.5767207 α      lambda       -0.4345037E-02
   maximum displ.:     0.2227205 α      in ANC's #53, #14, #9, ...
 * RMSD in coord.:     2.0213211 α      energy gain   0.3508020E+01 Eh

generating ANC from exact Hessian ...
Using Lindh-Hessian (1995)
 Shifting diagonal of input Hessian by    1.6357121266209015E-002
 Lowest  eigenvalues of input Hessian
    0.010000    0.013975    0.014183    0.014517    0.015815    0.016285
    0.016308    0.000000    0.000000    0.000000    0.000000    0.000000
    0.000000    0.016407    0.016451    0.016528    0.016577    0.016599
 Highest eigenvalues
    0.202715    0.206695    0.227787    0.238154    0.271090    0.279431


........................................................................
.............................. CYCLE   21 ..............................
........................................................................

 iter      E             dE          RMSdq      gap      omega  full diag
   1    -53.8760786 -0.538761E+02  0.136E+00    0.05       0.0  T
   2    -45.3568592  0.851922E+01  0.822E+00    0.14       1.0  T
   3    -53.3192777 -0.796242E+01  0.297E+00    0.20       1.0  T
   4    -53.5336175 -0.214340E+00  0.232E+00    0.10       1.0  T
   5    -53.8468306 -0.313213E+00  0.153E+00    0.17       1.0  T
   6    -53.9816986 -0.134868E+00  0.610E-01    0.06       1.0  T
   7    -53.9577563  0.239422E-01  0.839E-01    0.13       1.0  T
   8    -53.9904463 -0.326899E-01  0.512E-01    0.08       1.0  T
   9    -53.9703817  0.200646E-01  0.682E-01    0.09       1.0  T
  10    -53.9927701 -0.223884E-01  0.478E-01    0.11       1.0  T
  11    -54.0039325 -0.111624E-01  0.315E-01    0.10       1.0  T
  12    -54.0074558 -0.352333E-02  0.209E-01    0.10       1.0  T
  13    -54.0083051 -0.849252E-03  0.236E-01    0.09       1.0  T
  14    -54.0101464 -0.184132E-02  0.147E-01    0.09       1.0  T
  15    -54.0087020  0.144440E-02  0.210E-01    0.09       1.0  T
  16    -54.0097028 -0.100079E-02  0.154E-01    0.09       1.0  T
  17    -54.0100330 -0.330187E-03  0.125E-01    0.09       1.0  T
  18    -54.0105018 -0.468891E-03  0.887E-02    0.09       1.0  T
  19    -54.0107854 -0.283545E-03  0.637E-02    0.09       1.0  T
  20    -54.0108999 -0.114554E-03  0.511E-02    0.09       1.0  T
  21    -54.0109572 -0.572965E-04  0.401E-02    0.09       1.0  T
  22    -54.0110659 -0.108685E-03  0.174E-02    0.09       1.0  T
  23    -54.0110691 -0.318311E-05  0.151E-02    0.09       1.1  T
  24    -54.0110785 -0.942983E-05  0.871E-03    0.09       1.9  T
  25    -54.0110819 -0.335756E-05  0.528E-03    0.09       3.2  T
  26    -54.0110825 -0.631739E-06  0.433E-03    0.09       3.9  T
  27    -54.0110837 -0.122468E-05  0.186E-03    0.09       9.0  T
  28    -54.0110838 -0.138414E-07  0.173E-03    0.09       9.7  T
  29    -54.0110838 -0.525219E-07  0.170E-03    0.09       9.8  T
  30    -54.0110839 -0.456547E-07  0.100E-03    0.09      16.7  T
  31    -54.0110838  0.131028E-07  0.903E-04    0.09      18.5  T
  32    -54.0110839 -0.618035E-07  0.386E-04    0.09      43.2  T
     SCC iter.                  ...        0 min,  0.129 sec
     gradient                   ...        0 min,  0.023 sec
 * total energy  :   -53.9790957 Eh     change        0.2187058E-01 Eh
   gradient norm :     0.0159510 Eh/α   predicted     0.0000000E+00 (-100.00%)
   displ. norm   :     0.3187248 α      lambda       -0.3860127E-02
   maximum displ.:     0.1042114 α      in ANC's #5, #49, #1, ...

........................................................................
.............................. CYCLE   22 ..............................
........................................................................

 iter      E             dE          RMSdq      gap      omega  full diag
   1    -53.9690532 -0.539691E+02  0.690E-01    0.07       0.0  T
   2    -51.8531957  0.211586E+01  0.444E+00    0.10       1.0  T
   3    -53.8127863 -0.195959E+01  0.141E+00    0.10       1.0  T
   4    -53.8404116 -0.276253E-01  0.131E+00    0.11       1.0  T
   5    -53.9256277 -0.852161E-01  0.998E-01    0.13       1.0  T
   6    -53.9712473 -0.456196E-01  0.612E-01    0.09       1.0  T
   7    -53.9902248 -0.189775E-01  0.316E-01    0.07       1.0  T
   8    -53.9755839  0.146409E-01  0.478E-01    0.07       1.0  T
   9    -53.9926047 -0.170207E-01  0.276E-01    0.09       1.0  T
  10    -53.9948614 -0.225671E-02  0.208E-01    0.08       1.0  T
  11    -53.9947270  0.134385E-03  0.209E-01    0.08       1.0  T
  12    -53.9953095 -0.582489E-03  0.185E-01    0.09       1.0  T
  13    -53.9970521 -0.174260E-02  0.113E-01    0.09       1.0  T
  14    -53.9971556 -0.103531E-03  0.101E-01    0.09       1.0  T
  15    -53.9972696 -0.113980E-03  0.870E-02    0.09       1.0  T
  16    -53.9975393 -0.269686E-03  0.629E-02    0.09       1.0  T
  17    -53.9975168  0.224302E-04  0.568E-02    0.09       1.0  T
  18    -53.9977476 -0.230798E-03  0.331E-02    0.09       1.0  T
  19    -53.9978028 -0.551819E-04  0.206E-02    0.09       1.0  T
  20    -53.9978232 -0.203574E-04  0.133E-02    0.09       1.3  T
  21    -53.9978288 -0.567236E-05  0.106E-02    0.09       1.6  T
  22    -53.9978234  0.542950E-05  0.120E-02    0.09       1.4  T
  23    -53.9978334 -0.100286E-04  0.497E-03    0.09       3.4  T
  24    -53.9978326  0.801407E-06  0.546E-03    0.09       3.1  T
  25    -53.9978339 -0.129519E-05  0.369E-03    0.09       4.5  T
  26    -53.9978344 -0.507856E-06  0.252E-03    0.09       6.6  T
  27    -53.9978344 -0.933775E-08  0.219E-03    0.09       7.6  T
  28    -53.9978347 -0.294603E-06  0.122E-03    0.09      13.6  T
  29    -53.9978348 -0.220913E-07  0.102E-03    0.09      16.4  T
  30    -53.9978348 -0.144695E-07  0.862E-04    0.09      19.3  T
  31    -53.9978347  0.338608E-07  0.109E-03    0.09      15.2  T
  32    -53.9978348 -0.620403E-07  0.279E-04    0.09      59.7  T
     SCC iter.                  ...        0 min,  0.134 sec
     gradient                   ...        0 min,  0.017 sec
 * total energy  :   -53.9668004 Eh     change        0.1229534E-01 Eh
   gradient norm :     0.0133531 Eh/α   predicted    -0.2130252E-02 (-117.33%)
   displ. norm   :     0.8393863 α      lambda       -0.9430548E-02
   maximum displ.:     0.2717409 α      in ANC's #5, #49, #38, ...

........................................................................
.............................. CYCLE   23 ..............................
........................................................................

 iter      E             dE          RMSdq      gap      omega  full diag
   1    -53.7128929 -0.537129E+02  0.192E+00    0.14       0.0  T
   2    -39.5963200  0.141166E+02  0.103E+01    0.06       1.0  T
   3    -52.8289738 -0.132327E+02  0.367E+00    0.18       1.0  T
   4    -53.4247507 -0.595777E+00  0.257E+00    0.11       1.0  T
   5    -53.5441067 -0.119356E+00  0.232E+00    0.20       1.0  T
   6    -53.7418946 -0.197788E+00  0.156E+00    0.11       1.0  T
   7    -53.8039777 -0.620831E-01  0.138E+00    0.08       1.0  T
   8    -53.7073175  0.966602E-01  0.156E+00    0.05       1.0  T
   9    -53.9039091 -0.196592E+00  0.855E-01    0.09       1.0  T
  10    -53.8415904  0.623187E-01  0.116E+00    0.12       1.0  T
  11    -53.9208408 -0.792504E-01  0.595E-01    0.09       1.0  T
  12    -53.9271445 -0.630368E-02  0.576E-01    0.10       1.0  T
  13    -53.9420917 -0.149472E-01  0.416E-01    0.09       1.0  T
  14    -53.9433565 -0.126483E-02  0.392E-01    0.09       1.0  T
  15    -53.9442111 -0.854643E-03  0.369E-01    0.10       1.0  T
  16    -53.9476976 -0.348648E-02  0.291E-01    0.09       1.0  T
  17    -53.9434884  0.420925E-02  0.373E-01    0.10       1.0  T
  18    -53.9474670 -0.397860E-02  0.272E-01    0.10       1.0  T
  19    -53.9517629 -0.429597E-02  0.984E-02    0.10       1.0  T
  20    -53.9518775 -0.114579E-03  0.838E-02    0.10       1.0  T
  21    -53.9519642 -0.867039E-04  0.762E-02    0.10       1.0  T
  22    -53.9519818 -0.176092E-04  0.719E-02    0.10       1.0  T
  23    -53.9517265  0.255295E-03  0.844E-02    0.10       1.0  T
  24    -53.9522319 -0.505389E-03  0.265E-02    0.10       1.0  T
  25    -53.9521783  0.536200E-04  0.415E-02    0.10       1.0  T
  26    -53.9522117 -0.334363E-04  0.351E-02    0.10       1.0  T
  27    -53.9522092  0.252492E-05  0.299E-02    0.10       1.0  T
  28    -53.9522475 -0.382998E-04  0.160E-02    0.10       1.0  T
  29    -53.9522597 -0.122325E-04  0.126E-02    0.10       1.3  T
  30    -53.9522664 -0.667392E-05  0.795E-03    0.10       2.1  T
  31    -53.9522687 -0.224176E-05  0.411E-03    0.10       4.1  T
  32    -53.9522690 -0.347031E-06  0.341E-03    0.10       4.9  T
  33    -53.9522682  0.837223E-06  0.449E-03    0.10       3.7  T
  34    -53.9522691 -0.931787E-06  0.253E-03    0.10       6.6  T
  35    -53.9522692 -0.119768E-06  0.237E-03    0.10       7.0  T
  36    -53.9522694 -0.194230E-06  0.108E-03    0.10      15.4  T
  37    -53.9522695 -0.414305E-07  0.480E-04    0.10      34.7  T
  38    -53.9522695 -0.106766E-07  0.308E-04    0.10      54.1  T
     SCC iter.                  ...        0 min,  0.151 sec
     gradient                   ...        0 min,  0.019 sec
 * total energy  :   -53.9214002 Eh     change        0.4540024E-01 Eh
   gradient norm :     0.0126331 Eh/α   predicted    -0.8037514E-02 (-117.70%)
   displ. norm   :     0.8834780 α      lambda       -0.8912677E-02
   maximum displ.:     0.2871478 α      in ANC's #5, #49, #54, ...

........................................................................
.............................. CYCLE   24 ..............................
........................................................................

 iter      E             dE          RMSdq      gap      omega  full diag
   1    -53.7012145 -0.537012E+02  0.178E+00    0.12       0.0  T
   2    -39.9093757  0.137918E+02  0.103E+01    0.10       1.0  T
   3    -53.4699841 -0.135606E+02  0.232E+00    0.08       1.0  T
   4    -53.3642530  0.105731E+00  0.271E+00    0.04       1.0  T
   5    -53.4396920 -0.754390E-01  0.220E+00    0.12       1.0  T
   6    -53.3147796  0.124912E+00  0.244E+00    0.17       1.0  T
   7    -53.8010073 -0.486228E+00  0.119E+00    0.04       1.0  T
   8    -53.6836846  0.117323E+00  0.160E+00    0.07       1.0  T
   9    -53.8335795 -0.149895E+00  0.942E-01    0.06       1.0  T
  10    -53.8060742  0.275053E-01  0.961E-01    0.10       1.0  T
  11    -53.8533163 -0.472421E-01  0.745E-01    0.12       1.0  T
  12    -53.8631784 -0.986211E-02  0.675E-01    0.11       1.0  T
  13    -53.8656379 -0.245956E-02  0.601E-01    0.10       1.0  T
  14    -53.8868814 -0.212435E-01  0.426E-01    0.09       1.0  T
  15    -53.8890546 -0.217322E-02  0.417E-01    0.06       1.0  T
  16    -53.8929336 -0.387903E-02  0.407E-01    0.06       1.0  T
  17    -53.8953783 -0.244461E-02  0.336E-01    0.06       1.0  T
  18    -53.8943543  0.102398E-02  0.352E-01    0.06       1.0  T
  19    -53.8977422 -0.338790E-02  0.215E-01    0.07       1.0  T
  20    -53.8976630  0.792259E-04  0.235E-01    0.08       1.0  T
  21    -53.8981010 -0.437995E-03  0.208E-01    0.08       1.0  T
  22    -53.8989387 -0.837749E-03  0.163E-01    0.07       1.0  T
  23    -53.9003038 -0.136511E-02  0.793E-02    0.07       1.0  T
  24    -53.9005153 -0.211533E-03  0.491E-02    0.07       1.0  T
  25    -53.9006342 -0.118814E-03  0.336E-02    0.07       1.0  T
  26    -53.9006418 -0.763153E-05  0.277E-02    0.07       1.0  T
  27    -53.9006447 -0.286273E-05  0.224E-02    0.07       1.0  T
  28    -53.9006548 -0.101768E-04  0.173E-02    0.07       1.0  T
  29    -53.9006448  0.100125E-04  0.231E-02    0.07       1.0  T
  30    -53.9006436  0.122314E-05  0.206E-02    0.07       1.0  T
  31    -53.9006549 -0.112663E-04  0.146E-02    0.07       1.1  T
  32    -53.9006615 -0.659540E-05  0.776E-03    0.07       2.1  T
  33    -53.9006636 -0.209747E-05  0.599E-03    0.07       2.8  T
  34    -53.9006633  0.268196E-06  0.543E-03    0.07       3.1  T
  35    -53.9006636 -0.358867E-06  0.488E-03    0.07       3.4  T
  36    -53.9006629  0.694976E-06  0.564E-03    0.07       3.0  T
  37    -53.9006642 -0.127563E-05  0.241E-03    0.07       6.9  T
  38    -53.9006645 -0.305829E-06  0.106E-03    0.07      15.7  T
  39    -53.9006646 -0.318887E-07  0.612E-04    0.07      27.2  T
  40    -53.9006646 -0.139546E-07  0.275E-04    0.07      60.5  T
     SCC iter.                  ...        0 min,  0.165 sec
     gradient                   ...        0 min,  0.021 sec
 * total energy  :   -53.8684994 Eh     change        0.5290076E-01 Eh
   gradient norm :     0.0149885 Eh/α   predicted    -0.7934664E-02 (-115.00%)
   displ. norm   :     0.9466704 α      lambda       -0.1024324E-01
   maximum displ.:     0.2862239 α      in ANC's #5, #49, #54, ...

........................................................................
.............................. CYCLE   25 ..............................
........................................................................

 iter      E             dE          RMSdq      gap      omega  full diag
   1    -53.5376262 -0.535376E+02  0.243E+00    0.04       0.0  T
   2    -36.4295151  0.171081E+02  0.116E+01    0.12       1.0  T
   3    -51.6477302 -0.152182E+02  0.478E+00    0.13       1.0  T
   4    -51.8686595 -0.220929E+00  0.480E+00    0.17       1.0  T
   5    -51.9788437 -0.110184E+00  0.470E+00    0.26       1.0  T
   6    -52.9868663 -0.100802E+01  0.301E+00    0.02       1.0  T
   7    -53.0468786 -0.600123E-01  0.291E+00    0.03       1.0  T
   8    -53.6129587 -0.566080E+00  0.188E+00    0.01       1.0  T
   9    -53.6080010  0.495769E-02  0.180E+00    0.04       1.0  T
  10    -53.5616773  0.463236E-01  0.182E+00    0.09       1.0  T
  11    -53.7428790 -0.181202E+00  0.138E+00    0.08       1.0  T
  12    -53.7517895 -0.891046E-02  0.123E+00    0.05       1.0  T
  13    -53.7478998  0.388970E-02  0.132E+00    0.10       1.0  T
  14    -53.8031236 -0.552238E-01  0.951E-01    0.06       1.0  T
  15    -53.8216518 -0.185282E-01  0.712E-01    0.05       1.0  T
  16    -53.8290516 -0.739981E-02  0.546E-01    0.04       1.0  T
  17    -53.8330535 -0.400185E-02  0.490E-01    0.05       1.0  T
  18    -53.8371521 -0.409866E-02  0.459E-01    0.06       1.0  T
  19    -53.8511877 -0.140355E-01  0.226E-01    0.04       1.0  T
  20    -53.8523963 -0.120867E-02  0.193E-01    0.03       1.0  T
  21    -53.8528037 -0.407344E-03  0.173E-01    0.03       1.0  T
  22    -53.8528513 -0.476581E-04  0.157E-01    0.03       1.0  T
  23    -53.8526296  0.221750E-03  0.148E-01    0.04       1.0  T
  24    -53.8494787  0.315085E-02  0.237E-01    0.05       1.0  T
  25    -53.8527325 -0.325374E-02  0.131E-01    0.04       1.0  T
  26    -53.8535558 -0.823387E-03  0.807E-02    0.04       1.0  T
  27    -53.8539436 -0.387731E-03  0.508E-02    0.04       1.0  T
  28    -53.8539826 -0.390622E-04  0.400E-02    0.04       1.0  T
  29    -53.8540034 -0.207241E-04  0.338E-02    0.04       1.0  T
  30    -53.8540011  0.228555E-05  0.266E-02    0.04       1.0  T
  31    -53.8540265 -0.254680E-04  0.244E-02    0.04       1.0  T
  32    -53.8540069  0.196292E-04  0.276E-02    0.04       1.0  T
  33    -53.8540219 -0.149619E-04  0.206E-02    0.04       1.0  T
  34    -53.8540409 -0.190650E-04  0.945E-03    0.04       1.8  T
  35    -53.8540437 -0.279743E-05  0.640E-03    0.04       2.6  T
  36    -53.8540419  0.182264E-05  0.766E-03    0.04       2.2  T
  37    -53.8540435 -0.153759E-05  0.574E-03    0.04       2.9  T
  38    -53.8540439 -0.475250E-06  0.466E-03    0.04       3.6  T
  39    -53.8540456 -0.169206E-05  0.161E-03    0.04      10.3  T
  40    -53.8540456 -0.123243E-08  0.114E-03    0.04      14.6  T
  41    -53.8540456 -0.273299E-08  0.108E-03    0.04      15.5  T
  42    -53.8540457 -0.681957E-07  0.537E-04    0.04      31.0  T
  43    -53.8540457 -0.140965E-07  0.346E-04    0.04      48.2  T
     SCC iter.                  ...        0 min,  0.214 sec
     gradient                   ...        0 min,  0.025 sec
 * total energy  :   -53.8193971 Eh     change        0.4910235E-01 Eh
   gradient norm :     0.0174759 Eh/α   predicted    -0.9711576E-02 (-119.78%)
   displ. norm   :     0.8301561 α      lambda       -0.1003804E-01
   maximum displ.:     0.2018144 α      in ANC's #54, #66, #40, ...

........................................................................
.............................. CYCLE   26 ..............................
........................................................................

 iter      E             dE          RMSdq      gap      omega  full diag
   1    -53.3836227 -0.533836E+02  0.264E+00    0.15       0.0  T
   2    -30.2406505  0.231430E+02  0.121E+01    0.08       1.0  T
   3    -50.2095028 -0.199689E+02  0.603E+00    0.10       1.0  T
   4    -52.3574078 -0.214790E+01  0.391E+00    0.07       1.0  T
   5    -53.0773533 -0.719945E+00  0.309E+00    0.17       1.0  T
   6    -51.2837871  0.179357E+01  0.540E+00    0.08       1.0  T
   7    -52.7977336 -0.151395E+01  0.355E+00    0.08       1.0  T
   8    -53.2028551 -0.405122E+00  0.289E+00    0.04       1.0  T
   9    -53.6331358 -0.430281E+00  0.166E+00    0.02       1.0  T
  10    -53.6706344 -0.374986E-01  0.142E+00    0.02       1.0  T
  11    -53.7070417 -0.364073E-01  0.126E+00    0.03       1.0  T
  12    -53.7345340 -0.274922E-01  0.117E+00    0.10       1.0  T
  13    -53.7178002  0.167338E-01  0.119E+00    0.07       1.0  T
  14    -53.7722211 -0.544209E-01  0.859E-01    0.04       1.0  T
  15    -53.7959605 -0.237394E-01  0.716E-01    0.03       1.0  T
  16    -53.6222559  0.173705E+00  0.162E+00    0.04       1.0  T
  17    -53.6838647 -0.616089E-01  0.135E+00    0.03       1.0  T
  18    -53.7558662 -0.720014E-01  0.984E-01    0.01       1.0  T
  19    -53.8018880 -0.460219E-01  0.546E-01    0.02       1.0  T
  20    -53.8061733 -0.428524E-02  0.486E-01    0.03       1.0  T
  21    -53.8162434 -0.100701E-01  0.412E-01    0.03       1.0  T
  22    -53.8159834  0.259991E-03  0.408E-01    0.03       1.0  T
  23    -53.8162565 -0.273030E-03  0.398E-01    0.03       1.0  T
  24    -53.8175875 -0.133106E-02  0.341E-01    0.03       1.0  T
  25    -53.8188715 -0.128397E-02  0.286E-01    0.04       1.0  T
  26    -53.8180865  0.785023E-03  0.290E-01    0.04       1.0  T
  27    -53.8223348 -0.424832E-02  0.210E-01    0.03       1.0  T
  28    -53.8234104 -0.107556E-02  0.161E-01    0.03       1.0  T
  29    -53.8236091 -0.198741E-03  0.145E-01    0.03       1.0  T
  30    -53.8239498 -0.340727E-03  0.120E-01    0.03       1.0  T
  31    -53.8237101  0.239699E-03  0.999E-02    0.03       1.0  T
  32    -53.8239806 -0.270475E-03  0.828E-02    0.03       1.0  T
  33    -53.8243098 -0.329227E-03  0.371E-02    0.03       1.0  T
  34    -53.8241984  0.111413E-03  0.542E-02    0.03       1.0  T
  35    -53.8242566 -0.581415E-04  0.460E-02    0.03       1.0  T
  36    -53.8243554 -0.988041E-04  0.251E-02    0.03       1.0  T
  37    -53.8243822 -0.268919E-04  0.132E-02    0.03       1.3  T
  38    -53.8243596  0.226861E-04  0.206E-02    0.03       1.0  T
  39    -53.8243883 -0.286988E-04  0.797E-03    0.03       2.1  T
  40    -53.8243862  0.206916E-05  0.997E-03    0.03       1.7  T
  41    -53.8243918 -0.561403E-05  0.438E-03    0.03       3.8  T
  42    -53.8243914  0.390115E-06  0.482E-03    0.03       3.5  T
  43    -53.8243917 -0.238864E-06  0.340E-03    0.03       4.9  T
  44    -53.8243913  0.307701E-06  0.443E-03    0.03       3.8  T
  45    -53.8243923 -0.923366E-06  0.241E-03    0.03       6.9  T
  46    -53.8243924 -0.131302E-06  0.195E-03    0.03       8.5  T
  47    -53.8243926 -0.228836E-06  0.234E-04    0.03      71.3  T
  48    -53.8243926  0.152509E-08  0.240E-04    0.03      69.6  T
     SCC iter.                  ...        0 min,  0.199 sec
     gradient                   ...        0 min,  0.018 sec
 * total energy  :   -53.7863274 Eh     change        0.3306970E-01 Eh
   gradient norm :     0.0215993 Eh/α   predicted    -0.8478039E-02 (-125.64%)
   displ. norm   :     0.7838472 α      lambda       -0.1143712E-01
   maximum displ.:     0.2564299 α      in ANC's #66, #74, #80, ...

........................................................................
.............................. CYCLE   27 ..............................
........................................................................

 iter      E             dE          RMSdq      gap      omega  full diag
   1    -53.6195360 -0.536195E+02  0.179E+00    0.15       0.0  T
   2    -37.4714886  0.161480E+02  0.995E+00    0.12       1.0  T
   3    -52.3943233 -0.149228E+02  0.457E+00    0.08       1.0  T
   4    -52.8419068 -0.447584E+00  0.331E+00    0.01       1.0  T
   5    -53.2840278 -0.442121E+00  0.278E+00    0.05       1.0  T
   6    -53.3594657 -0.754379E-01  0.226E+00    0.05       1.0  T
   7    -53.3824871 -0.230214E-01  0.236E+00    0.04       1.0  T
   8    -53.2531043  0.129383E+00  0.269E+00    0.21       1.0  T
   9    -53.6605656 -0.407461E+00  0.148E+00    0.05       1.0  T
  10    -53.5811914  0.793742E-01  0.152E+00    0.10       1.0  T
  11    -53.7358094 -0.154618E+00  0.114E+00    0.13       1.0  T
[...]
          :  # shells                           60          :
          :  # electrons                       106          :
          :  max. iterations                   250          :
          :  Hamiltonian                  GFN2-xTB          :
          :  restarted?                      false          :
          :  GBSA solvation                  false          :
          :  PC potential                    false          :
          :  electronic temp.          300.0000000     K    :
          :  accuracy                    1.0000000          :
          :  -> integral cutoff          0.2500000E+02      :
          :  -> integral neglect         0.1000000E-07      :
          :  -> SCF convergence          0.1000000E-05 Eh   :
          :  -> wf. convergence          0.1000000E-03 e    :
          :  Broyden damping             0.4000000          :
          :  net charge                          0          :
          :  unpaired electrons                  0          :
          ...................................................

 iter      E             dE          RMSdq      gap      omega  full diag
   1    -53.9161375 -0.539161E+02  0.271E-01    0.01       0.0  T
   2    -53.6721606  0.243977E+00  0.145E+00    0.07       1.0  T
   3    -53.8901544 -0.217994E+00  0.487E-01    0.03       1.0  T
   4    -53.9028575 -0.127031E-01  0.424E-01    0.03       1.0  T
   5    -53.9155342 -0.126767E-01  0.228E-01    0.01       1.0  T
   6    -53.9140446  0.148955E-02  0.244E-01    0.01       1.0  T
   7    -53.9160283 -0.198370E-02  0.186E-01    0.01       1.0  T
   8    -53.9192094 -0.318111E-02  0.831E-02    0.00       1.0  T
   9    -53.9196033 -0.393872E-03  0.522E-02    0.00       1.0  T
  10    -53.9196313 -0.279847E-04  0.453E-02    0.00       1.0  T
  11    -53.9197684 -0.137141E-03  0.277E-02    0.00       1.0  T
  12    -53.9197792 -0.108190E-04  0.242E-02    0.00       1.0  T
  13    -53.9198139 -0.346327E-04  0.106E-02    0.00       1.6  T
  14    -53.9198105  0.338962E-05  0.101E-02    0.00       1.7  T
  15    -53.9198170 -0.647248E-05  0.619E-03    0.00       2.7  T
  16    -53.9198165  0.494301E-06  0.582E-03    0.00       2.9  T
  17    -53.9198194 -0.297073E-05  0.365E-03    0.00       4.6  T
  18    -53.9198195 -0.717567E-07  0.283E-03    0.00       5.9  T
  19    -53.9198201 -0.550691E-06  0.171E-03    0.00       9.7  T
  20    -53.9198201 -0.113959E-07  0.153E-03    0.00      10.9  T
  21    -53.9198202 -0.994294E-07  0.117E-03    0.00      14.2  T
  22    -53.9198202 -0.347782E-07  0.804E-04    0.00      20.7  T
  23    -53.9198202 -0.220852E-07  0.571E-04    0.00      29.2  T

   *** convergence criteria satisfied after 23 iterations ***

         #    Occupation            Energy/Eh            Energy/eV
      -------------------------------------------------------------
         1        2.0000           -1.2073809             -32.8545
       ...           ...                  ...                  ...
        47        2.0000           -0.4027860             -10.9604
        48        2.0000           -0.4010361             -10.9127
        49        2.0000           -0.3861712             -10.5083
        50        2.0000           -0.3849125             -10.4740
        51        1.9999           -0.3773301             -10.2677
        52        1.9956           -0.3738836             -10.1739
        53        0.9852           -0.3680532             -10.0152 (HOMO)
        54        0.9312           -0.3679504             -10.0124 (LUMO)
        55        0.0870           -0.3651451              -9.9361
        56        0.0010           -0.3608495              -9.8192
        57        0.0003           -0.3596582              -9.7868
        58                         -0.3518174              -9.5734
       ...                                ...                  ...
       114                          5.2678284             143.3449
      -------------------------------------------------------------
                  HL-Gap            0.0001028 Eh            0.0028 eV
             Fermi-level           -0.3680814 Eh          -10.0160 eV

 SCC (total)                   0 d,  0 h,  0 min,  0.185 sec
 SCC setup                      ...        0 min,  0.001 sec (  0.338%)
 Dispersion                     ...        0 min,  0.001 sec (  0.566%)
 classical contributions        ...        0 min,  0.000 sec (  0.130%)
 integral evaluation            ...        0 min,  0.009 sec (  5.136%)
 iterations                     ...        0 min,  0.122 sec ( 65.968%)
 molecular gradient             ...        0 min,  0.051 sec ( 27.557%)
 printout                       ...        0 min,  0.001 sec (  0.275%)

         :::::::::::::::::::::::::::::::::::::::::::::::::::::
         ::                     SUMMARY                     ::
         :::::::::::::::::::::::::::::::::::::::::::::::::::::
         :: total energy             -53.862043397367 Eh    ::
         :: gradient norm              0.002320844436 Eh/a0 ::
         :: HOMO-LUMO gap              0.002797633276 eV    ::
         ::.................................................::
         :: SCC energy               -53.917225183854 Eh    ::
         :: -> isotropic ES           -0.194883179823 Eh    ::
         :: -> anisotropic ES         -0.009983010421 Eh    ::
         :: -> anisotropic XC         -0.015057298852 Eh    ::
         :: -> dispersion             -0.075919834813 Eh    ::
         :: repulsion energy           0.055181786488 Eh    ::
         :: add. restraining           0.000000000000 Eh    ::
         :: total charge              -0.000000000004 e     ::
         :::::::::::::::::::::::::::::::::::::::::::::::::::::

           -------------------------------------------------
          |                Property Printout                |
           -------------------------------------------------

    * Orbital Energies and Occupations

         #    Occupation            Energy/Eh            Energy/eV
      -------------------------------------------------------------
         1        2.0000           -1.2073809             -32.8545
       ...           ...                  ...                  ...
        41        2.0000           -0.4309510             -11.7268
        42        2.0000           -0.4252764             -11.5724
        43        2.0000           -0.4198379             -11.4244
        44        2.0000           -0.4152647             -11.2999
        45        2.0000           -0.4095632             -11.1448
        46        2.0000           -0.4074862             -11.0883
        47        2.0000           -0.4027860             -10.9604
        48        2.0000           -0.4010361             -10.9127
        49        2.0000           -0.3861712             -10.5083
        50        2.0000           -0.3849125             -10.4740
        51        1.9999           -0.3773301             -10.2677
        52        1.9956           -0.3738836             -10.1739
        53        0.9852           -0.3680532             -10.0152 (HOMO)
        54        0.9312           -0.3679504             -10.0124 (LUMO)
        55        0.0870           -0.3651451              -9.9361
        56        0.0010           -0.3608495              -9.8192
        57        0.0003           -0.3596582              -9.7868
        58                         -0.3518174              -9.5734
        59                         -0.3482407              -9.4761
        60                         -0.3435269              -9.3478
        61                         -0.3379035              -9.1948
        62                         -0.3342390              -9.0951
        63                         -0.3309439              -9.0054
        64                         -0.3255823              -8.8595
       ...                                ...                  ...
       114                          5.2678284             143.3449
      -------------------------------------------------------------
                  HL-Gap            0.0001028 Eh            0.0028 eV
             Fermi-level           -0.3680814 Eh          -10.0160 eV

     #   Z          covCN         q      C6AA      α(0)
     1  40 Zr      12.932     1.117   134.523    17.428
     2  17 Cl       6.994     0.424    87.419    14.304
     3  17 Cl       6.861     0.440    86.992    14.269
     4   7 N        2.314    -0.476    32.892     8.515
     5   6 C        2.723    -0.228    34.096     9.559
     6   6 C        3.028    -0.159    32.079     9.290
     7   6 C        1.449    -0.221    41.888    10.773
     8   6 C        4.953    -0.071    21.765     6.626
     9   6 C        3.055    -0.238    34.351     9.612
    10   6 C        1.341    -0.219    43.943    11.178
    11   6 C        1.343    -0.234    44.496    11.246
    12   6 C        3.034    -0.230    34.129     9.582
    13   6 C        1.294    -0.204    43.792    11.186
    14   6 C        1.255    -0.217    44.454    11.281
    15   6 C        1.407    -0.197    41.988    10.852
    16   6 C        1.370    -0.199    42.741    10.997
    17   6 C        1.371    -0.183    42.140    10.918
    18   6 C        2.147    -0.170    35.534     9.636
    19   6 C        3.151    -0.171    32.130     9.271
    20   6 C        3.319    -0.195    30.592     8.806
    21   6 C        1.259    -0.197    43.666    11.180
    22   1 H        0.001     0.064     5.351     4.230
    23   1 H        0.073     0.258     2.102     2.650
    24   1 H        0.027     0.089     4.706     3.966
    25   1 H        0.033     0.210     2.617     2.958
    26   1 H        0.000    -0.067    11.286     6.143
    27   1 H        0.000    -0.069    11.436     6.184
    28   1 H        0.033     0.263     2.066     2.628
    29   1 H        0.000    -0.118    15.527     7.205
    30   1 H        0.000    -0.072    11.644     6.240
    31   1 H        0.056     0.241     2.269     2.754
    32   1 H        0.068     0.277     1.942     2.548
    33   1 H        0.004     0.191     2.852     3.088
    34   1 H        0.061     0.223     2.459     2.867
    35   1 H        0.216     0.111     4.111     3.697
    36   1 H        0.068     0.225     2.437     2.854

 Mol. C6AA /au·bohr⁶  :      29781.726531
 Mol. C8AA /au·bohr⁸  :     939380.876996
 Mol. α(0) /au        :        286.520039


Wiberg/Mayer (AO) data.
largest (>0.10) Wiberg bond orders for each atom

 ---------------------------------------------------------------------------
     #   Z sym  total        # sym  WBO       # sym  WBO       # sym  WBO
 ---------------------------------------------------------------------------
     1  40 Zr   4.087 --     4 N    0.277     7 C    0.250    21 C    0.249
                            17 C    0.240    14 C    0.236    11 C    0.232
                             9 C    0.221    13 C    0.215    10 C    0.215
                            15 C    0.212     3 Cl   0.204    16 C    0.200
                            20 C    0.185    18 C    0.181     2 Cl   0.151
                            19 C    0.127     8 C    0.118     6 C    0.103
     2  17 Cl   3.300 --     5 C    0.502    19 C    0.473    20 C    0.436
                             9 C    0.394    12 C    0.361     8 C    0.333
                            35 H    0.177     1 Zr   0.151     3 Cl   0.133
     3  17 Cl   3.352 --     4 N    0.766    12 C    0.469     5 C    0.429
                             6 C    0.368    20 C    0.353     8 C    0.245
                             1 Zr   0.204     2 Cl   0.133
     4   7 N    2.898 --     3 Cl   0.766    21 C    0.447     6 C    0.430
                             1 Zr   0.277    13 C    0.137
     5   6 C    2.575 --     2 Cl   0.502     3 Cl   0.429    24 H    0.429
                            12 C    0.405    20 C    0.289
     6   6 C    3.126 --     8 C    0.545     4 N    0.430    11 C    0.401
                             3 Cl   0.368     7 C    0.279    28 H    0.232
                            22 H    0.197     1 Zr   0.103
     7   6 C    2.896 --    10 C    0.675    11 C    0.444     8 C    0.363
                             6 C    0.279     1 Zr   0.250    32 H    0.173
     8   6 C    3.285 --     6 C    0.545     9 C    0.537    12 C    0.383
                             7 C    0.363     2 Cl   0.333     3 Cl   0.245
                            22 H    0.159     1 Zr   0.118
     9   6 C    2.845 --     8 C    0.537    18 C    0.421     2 Cl   0.394
                            19 C    0.333     1 Zr   0.221    34 H    0.131
                            20 C    0.122
    10   6 C    2.987 --     7 C    0.675    18 C    0.388    16 C    0.320
                            34 H    0.316    14 C    0.278     1 Zr   0.215
                            33 H    0.168    27 H    0.133
    11   6 C    2.979 --    13 C    0.508     7 C    0.444     6 C    0.401
                            14 C    0.395     1 Zr   0.232    28 H    0.156
                            32 H    0.127
    12   6 C    2.781 --     3 Cl   0.469     5 C    0.405     8 C    0.383
                             2 Cl   0.361    24 H    0.294    22 H    0.288
                            20 C    0.132
    13   6 C    2.915 --    15 C    0.549    11 C    0.508    23 H    0.334
                            14 C    0.267    21 C    0.253     1 Zr   0.215
                            36 H    0.169     4 N    0.137
    14   6 C    2.953 --    16 C    0.407    11 C    0.395    10 C    0.278
                            13 C    0.267    31 H    0.252     1 Zr   0.236
                            32 H    0.226    33 H    0.182
    15   6 C    2.949 --    21 C    0.551    13 C    0.549    17 C    0.420
                            16 C    0.370    36 H    0.269     1 Zr   0.212
                            31 H    0.149
    16   6 C    2.876 --    18 C    0.493    14 C    0.407    15 C    0.370
                            10 C    0.320    17 C    0.299    25 H    0.227
                             1 Zr   0.200
    17   6 C    2.884 --    19 C    0.583    15 C    0.420    25 H    0.413
                            16 C    0.299    18 C    0.271     1 Zr   0.240
    18   6 C    3.054 --    16 C    0.493    19 C    0.466     9 C    0.421
                            10 C    0.388    34 H    0.286    17 C    0.271
                             1 Zr   0.181    25 H    0.171
    19   6 C    3.003 --    17 C    0.583     2 Cl   0.473    18 C    0.466
                             9 C    0.333    20 C    0.303    35 H    0.160
                             1 Zr   0.127
    20   6 C    2.917 --     2 Cl   0.436    21 C    0.378     3 Cl   0.353
                            19 C    0.303     5 C    0.289    35 H    0.285
                             1 Zr   0.185    12 C    0.132     9 C    0.122
    21   6 C    2.921 --    15 C    0.551     4 N    0.447    20 C    0.378
                            36 H    0.352    13 C    0.253     1 Zr   0.249
    22   1 H    0.814 --    12 C    0.288     6 C    0.197     8 C    0.159
    23   1 H    0.913 --    13 C    0.334    29 H    0.214
    24   1 H    0.878 --     5 C    0.429    12 C    0.294
    25   1 H    0.923 --    17 C    0.413    16 C    0.227    18 C    0.171
    26   1 H    0.724 --    33 H    0.431
    27   1 H    0.833 --    32 H    0.219    10 C    0.133
    28   1 H    0.908 --    29 H    0.256     6 C    0.232    11 C    0.156
    29   1 H    0.793 --    28 H    0.256    23 H    0.214
    30   1 H    0.745 --    31 H    0.368
    31   1 H    0.935 --    30 H    0.368    14 C    0.252    15 C    0.149
    32   1 H    0.913 --    14 C    0.226    27 H    0.219     7 C    0.173
                            11 C    0.127
    33   1 H    0.951 --    26 H    0.431    14 C    0.182    10 C    0.168
    34   1 H    0.887 --    10 C    0.316    18 C    0.286     9 C    0.131
    35   1 H    0.931 --    20 C    0.285     2 Cl   0.177    19 C    0.160
    36   1 H    0.906 --    21 C    0.352    15 C    0.269    13 C    0.169
 ---------------------------------------------------------------------------

Topologies differ in total number of bonds
Writing topology from bond orders to xtbtopo.mol

molecular dipole:
                 x           y           z       tot (Debye)
 q only:        0.069       0.190      -0.376
   full:        0.407       0.094      -0.599       1.857
molecular quadrupole (traceless):
                xx          xy          yy          xz          yz          zz
 q only:       -0.606       3.336      -4.417       2.449      -2.909       5.022
  q+dip:        3.318       2.458      -4.826       1.266      -6.210       1.508
   full:        2.026       1.307      -3.171       2.213      -4.578       1.145

           -------------------------------------------------
          |                Geometry Summary                 |
           -------------------------------------------------

      molecular mass/u    :      395.4378415
   center of mass at/Å    :        0.2363046      -0.0044836       0.5347815
  moments of inertia/u·Å² :        0.1053196E+04   0.1592337E+04   0.1711710E+04
rotational constants/cm⁻¹ :        0.1600616E-01   0.1058672E-01   0.9848414E-02

 * 17 selected distances

     #   Z          #   Z                                           value/Å
     1  40 Zr       3  17 Cl                                      2.6431753 (max)
     2  17 Cl       3  17 Cl                                      2.0882953 (min)
     1  40 Zr       4   7 N                                       2.2680277
     1  40 Zr       7   6 C                                       2.4842917
     1  40 Zr       8   6 C                                       2.5497664
     1  40 Zr       9   6 C                                       2.4590368
     1  40 Zr      10   6 C                                       2.4852788
     1  40 Zr      11   6 C                                       2.4823454
     1  40 Zr      13   6 C                                       2.5065548
     1  40 Zr      14   6 C                                       2.4682900
     1  40 Zr      15   6 C                                       2.5207074
     1  40 Zr      16   6 C                                       2.4940681
     1  40 Zr      17   6 C                                       2.4834051
     1  40 Zr      18   6 C                                       2.5158133
     1  40 Zr      19   6 C                                       2.5925215
     1  40 Zr      20   6 C                                       2.4716722
     1  40 Zr      21   6 C                                       2.4894444

 * 4 distinct bonds (by element types)

   Z      Z             #   av. dist./Å        max./Å        min./Å
  17 Cl  17 Cl          1     2.0882953     2.0882953     2.0882953
   6 C   40 Zr         14     2.5002283     2.5925215     2.4590368
   7 N   40 Zr          1     2.2680277     2.2680277     2.2680277
  17 Cl  40 Zr          1     2.6431753     2.6431753     2.6431753


optimized geometry written to: xtbopt.xyz


           -------------------------------------------------
          | TOTAL ENERGY              -53.862043397367 Eh   |
          | GRADIENT NORM               0.002320844436 Eh/α |
          | HOMO-LUMO GAP               0.002797633276 eV   |
           -------------------------------------------------

------------------------------------------------------------------------
 * finished run on 2026/03/05 at 12:41:08.301     
------------------------------------------------------------------------
 total:
 * wall-time:     0 d,  0 h,  1 min,  6.112 sec
 *  cpu-time:     0 d,  0 h,  5 min, 11.141 sec
 * ratio c/w:     4.706 speedup
 SCF:
 * wall-time:     0 d,  0 h,  0 min,  0.231 sec
 *  cpu-time:     0 d,  0 h,  0 min,  0.922 sec
 * ratio c/w:     3.991 speedup
 ANC optimizer:
 * wall-time:     0 d,  0 h,  1 min,  5.838 sec
 *  cpu-time:     0 d,  0 h,  5 min, 10.141 sec
 * ratio c/w:     4.711 speedup

