      -----------------------------------------------------------      
     |                   =====================                   |     
     |                           x T B                           |     
     |                   =====================                   |     
     |                         S. Grimme                         |     
     |          Mulliken Center for Theoretical Chemistry        |     
     |                    University of Bonn                     |     
      -----------------------------------------------------------      

   * xtb version 6.7.1 (edcfbbe) compiled by 'VssAdministrator@runnervmowedg' on 2025-09-04

   xtb is free software: you can redistribute it and/or modify it under
   the terms of the GNU Lesser General Public License as published by
   the Free Software Foundation, either version 3 of the License, or
   (at your option) any later version.
   
   xtb is distributed in the hope that it will be useful,
   but WITHOUT ANY WARRANTY; without even the implied warranty of
   MERCHANTABILITY or FITNESS FOR A PARTICULAR PURPOSE.  See the
   GNU Lesser General Public License for more details.
   
   Cite this work as:
   * C. Bannwarth, E. Caldeweyher, S. Ehlert, A. Hansen, P. Pracht,
     J. Seibert, S. Spicher, S. Grimme, WIREs Comput. Mol. Sci., 2020, 11,
     e01493. DOI: 10.1002/wcms.1493
   
   for GFN2-xTB:
   * C. Bannwarth, S. Ehlert and S. Grimme., J. Chem. Theory Comput., 2019,
     15, 1652-1671. DOI: 10.1021/acs.jctc.8b01176
   for GFN1-xTB:
   * S. Grimme, C. Bannwarth, P. Shushkov, J. Chem. Theory Comput., 2017,
     13, 1989-2009. DOI: 10.1021/acs.jctc.7b00118
   for GFN0-xTB:
   * P. Pracht, E. Caldeweyher, S. Ehlert, S. Grimme, ChemRxiv, 2019, preprint.
     DOI: 10.26434/chemrxiv.8326202.v1
   for GFN-FF:
   * S. Spicher and S. Grimme, Angew. Chem. Int. Ed., 2020, 59, 15665-15673.
     DOI: 10.1002/anie.202004239
   
   for ALPB and GBSA implicit solvation:
   * S. Ehlert, M. Stahn, S. Spicher, S. Grimme, J. Chem. Theory Comput.,
     2021, 17, 4250-4261. DOI: 10.1021/acs.jctc.1c00471
   
   for ddCOSMO and CPCM-X implicit solvation:
   * M. Stahn, S. Ehlert, S. Grimme, J. Phys. Chem. A,
     2023, XX, XXXX-XXXX. DOI: 10.1021/acs.jpca.3c04382
   
   for DFT-D4:
   * E. Caldeweyher, C. Bannwarth and S. Grimme, J. Chem. Phys., 2017,
     147, 034112. DOI: 10.1063/1.4993215
   * E. Caldeweyher, S. Ehlert, A. Hansen, H. Neugebauer, S. Spicher,
     C. Bannwarth and S. Grimme, J. Chem. Phys., 2019, 150, 154122.
     DOI: 10.1063/1.5090222
   * E. Caldeweyher, J.-M. Mewes, S. Ehlert and S. Grimme, Phys. Chem. Chem. Phys.
     2020, 22, 8499-8512. DOI: 10.1039/D0CP00502A
   
   for sTDA-xTB:
   * S. Grimme and C. Bannwarth, J. Chem. Phys., 2016, 145, 054103.
     DOI: 10.1063/1.4959605
   
   in the mass-spec context:
   * V. Asgeirsson, C. Bauer and S. Grimme, Chem. Sci., 2017, 8, 4879.
     DOI: 10.1039/c7sc00601b
   * J. Koopman and S. Grimme, ACS Omega 2019, 4, 12, 15120-15133.
     DOI: 10.1021/acsomega.9b02011
   
   for metadynamics refer to:
   * S. Grimme, J. Chem. Theory Comput., 2019, 155, 2847-2862
     DOI: 10.1021/acs.jctc.9b00143
   
   for SPH calculations refer to:
   * S. Spicher and S. Grimme, J. Chem. Theory Comput., 2021, 17, 1701-1714
     DOI: 10.1021/acs.jctc.0c01306
   
   for ONIOM refer to:
   * C. Plett, A. Katbashev, S. Ehlert, S. Grimme, M. Bursch,
     Phys. Chem. Chem. Phys., 2023, 25, 17860-17868. DOI: 10.1039/D3CP02178E
   
   for DIPRO refer to:
   * J. Kohn, N. Gildemeister, S. Grimme, D. Fazzi, A. Hansen,
     J. Chem. Phys., 2023, just accepted.
   
   for PTB refer to:
   * S. Grimme, M. Mueller, A. Hansen, J. Chem. Phys., 2023, 158, 124111.
     DOI: 10.1063/5.0137838
   
   with help from (in alphabetical order)
   P. Atkinson, C. Bannwarth, F. Bohle, G. Brandenburg, E. Caldeweyher
   M. Checinski, S. Dohm, S. Ehlert, S. Ehrlich, I. Gerasimov, C. Hölzer
   A. Katbashev, J. Kohn, J. Koopman, C. Lavigne, S. Lehtola, F. März, M. Müller,
   F. Musil, H. Neugebauer, J. Pisarek, C. Plett, P. Pracht, F. Pultar,
   J. Seibert, P. Shushkov, S. Spicher, M. Stahn, M. Steiner, T. Strunk,
   J. Stückrath, T. Rose, and J. Unsleber
   
 * started run on 2026/03/05 at 12:14:29.741     
   ID    Z sym.   atoms
    1   40 Zr     1
    2   17 Cl     2, 3
    3    7 N      4
    4    6 C      5-21
    5    1 H      22-36

           -------------------------------------------------
          |                Calculation Setup                |
           -------------------------------------------------

          program call               : xtb final_relax_0.xyz --opt --chrg 0 --uhf 0
          coordinate file            : final_relax_0.xyz
          omp threads                :                    12


molecular fragmentation (1/2 indicates fragments):
111111111111111111111111111111121111
# atoms in fragment 1/2:    35     1
 fragment masses (1/2) :      394.43        1.01
CMA distance (Bohr)    :   7.040
constraining FC (au)   :  0.0500

           -------------------------------------------------
          |                 G F N 2 - x T B                 |
           -------------------------------------------------

        Reference                      10.1021/acs.jctc.8b01176
      * Hamiltonian:
        H0-scaling (s, p, d)           1.850000    2.230000    2.230000
        zeta-weighting                 0.500000
      * Dispersion:
        s8                             2.700000
        a1                             0.520000
        a2                             5.000000
        s9                             5.000000
      * Repulsion:
        kExp                           1.500000    1.000000
        rExp                           1.000000
      * Coulomb:
        alpha                          2.000000
        third order                    shell-resolved
        anisotropic                    true
        a3                             3.000000
        a5                             4.000000
        cn-shift                       1.200000
        cn-exp                         4.000000
        max-rad                        5.000000

q/qsh data taken from xtbrestart
CAMM data taken from xtbrestart

          ...................................................
          :                      SETUP                      :
          :.................................................:
          :  # basis functions                 117          :
          :  # atomic orbitals                 114          :
          :  # shells                           60          :
          :  # electrons                       106          :
          :  max. iterations                   250          :
          :  Hamiltonian                  GFN2-xTB          :
          :  restarted?                       true          :
          :  GBSA solvation                  false          :
          :  PC potential                    false          :
          :  electronic temp.          300.0000000     K    :
          :  accuracy                    1.0000000          :
          :  -> integral cutoff          0.2500000E+02      :
          :  -> integral neglect         0.1000000E-07      :
          :  -> SCF convergence          0.1000000E-05 Eh   :
          :  -> wf. convergence          0.1000000E-03 e    :
          :  Broyden damping             0.4000000          :
          :  net charge                          0          :
          :  unpaired electrons                  0          :
          ...................................................

 iter      E             dE          RMSdq      gap      omega  full diag
   1    -58.0757968 -0.580758E+02  0.908E+00    0.49       0.0  T
   2    -58.1471307 -0.713339E-01  0.690E+00    1.53       1.0  T
   3    -57.8981960  0.248935E+00  0.416E+00    0.56       1.0  T
   4    -58.4499520 -0.551756E+00  0.183E+00    1.63       1.0  T
   5    -58.5361601 -0.862081E-01  0.104E+00    0.91       1.0  T
   6    -58.5590812 -0.229211E-01  0.769E-01    0.50       1.0  T
   7    -58.5527286  0.635266E-02  0.570E-01    0.19       1.0  T
   8    -58.5504751  0.225344E-02  0.696E-01    0.65       1.0  T
   9    -58.5637587 -0.132835E-01  0.344E-01    0.43       1.0  T
  10    -58.5682176 -0.445891E-02  0.139E-01    0.28       1.0  T
  11    -58.5681034  0.114203E-03  0.108E-01    0.28       1.0  T
  12    -58.5645788  0.352457E-02  0.278E-01    0.23       1.0  T
  13    -58.5682345 -0.365575E-02  0.665E-02    0.30       1.0  T
  14    -58.5683138 -0.792295E-04  0.468E-02    0.27       1.0  T
  15    -58.5683943 -0.805444E-04  0.193E-02    0.28       1.0  T
  16    -58.5683553  0.390093E-04  0.286E-02    0.27       1.0  T
  17    -58.5684012 -0.458859E-04  0.410E-03    0.28       4.1  T
  18    -58.5684013 -0.118137E-06  0.272E-03    0.28       6.1  T
  19    -58.5684015 -0.136146E-06  0.154E-03    0.28      10.8  T
  20    -58.5684015 -0.448328E-07  0.848E-04    0.28      19.7  T
  21    -58.5684015  0.279219E-07  0.946E-04    0.28      17.6  T

   *** convergence criteria satisfied after 21 iterations ***

         #    Occupation            Energy/Eh            Energy/eV
      -------------------------------------------------------------
         1        2.0000           -1.0990691             -29.9072
       ...           ...                  ...                  ...
        47        2.0000           -0.4041853             -10.9984
        48        2.0000           -0.3985802             -10.8459
        49        2.0000           -0.3884578             -10.5705
        50        2.0000           -0.3774743             -10.2716
        51        2.0000           -0.3478938              -9.4667
        52        2.0000           -0.3328310              -9.0568
        53        1.9913           -0.3142907              -8.5523 (HOMO)
        54        0.0087           -0.3039622              -8.2712 (LUMO)
        55                         -0.2586366              -7.0379
        56                         -0.2429579              -6.6112
        57                         -0.2346233              -6.3844
        58                         -0.2229513              -6.0668
       ...                                ...                  ...
       114                          4.1779291             113.6872
      -------------------------------------------------------------
                  HL-Gap            0.0103285 Eh            0.2811 eV
             Fermi-level           -0.3091265 Eh           -8.4118 eV

 SCC (total)                   0 d,  0 h,  0 min,  0.167 sec
 SCC setup                      ...        0 min,  0.001 sec (  0.312%)
 Dispersion                     ...        0 min,  0.001 sec (  0.424%)
 classical contributions        ...        0 min,  0.000 sec (  0.079%)
 integral evaluation            ...        0 min,  0.008 sec (  4.581%)
 iterations                     ...        0 min,  0.139 sec ( 83.355%)
 molecular gradient             ...        0 min,  0.018 sec ( 10.973%)
 printout                       ...        0 min,  0.000 sec (  0.251%)

         :::::::::::::::::::::::::::::::::::::::::::::::::::::
         ::                     SUMMARY                     ::
         :::::::::::::::::::::::::::::::::::::::::::::::::::::
         :: total energy             -57.464941599223 Eh    ::
         :: gradient norm              0.615561548086 Eh/a0 ::
         :: HOMO-LUMO gap              0.281053074747 eV    ::
         ::.................................................::
         :: SCC energy               -58.567179250115 Eh    ::
         :: -> isotropic ES            0.045004117632 Eh    ::
         :: -> anisotropic ES         -0.000283356359 Eh    ::
         :: -> anisotropic XC          0.016033208724 Eh    ::
         :: -> dispersion             -0.056268083120 Eh    ::
         :: repulsion energy           1.102237650892 Eh    ::
         :: add. restraining           0.000000000000 Eh    ::
         :: total charge               0.000000000029 e     ::
         :::::::::::::::::::::::::::::::::::::::::::::::::::::

      ----------------------------------------------------------- 
     |                   =====================                   |
     |                        A N C O P T                        |
     |                   =====================                   |
     |               Approximate Normal Coordinate               |
     |                Rational Function Optimizer                |
      ----------------------------------------------------------- 
      ----------------------------------------------------------- 
     |                   =====================                   |
     |                        A N C O P T                        |
     |                   =====================                   |
     |               Approximate Normal Coordinate               |
     |                Rational Function Optimizer                |
      ----------------------------------------------------------- 

          ...................................................
          :                      SETUP                      :
          :.................................................:
          :   optimization level            normal          :
          :   max. optcycles                   200          :
          :   ANC micro-cycles                  20          :
          :   degrees of freedom               102          :
          :.................................................:
          :   RF solver                   davidson          :
          :   write xtbopt.log                true          :
          :   linear?                        false          :
          :   energy convergence         0.5000000E-05 Eh   :
          :   grad. convergence          0.1000000E-02 Eh/α :
          :   maxmium RF displ.          1.0000000          :
          :   Hlow (freq-cutoff)         0.1000000E-01      :
          :   Hmax (freq-cutoff)         5.0000000          :
          :   S6 in model hess.         20.0000000          :
          ...................................................

generating ANC from exact Hessian ...
Using Lindh-Hessian (1995)
 Shifting diagonal of input Hessian by    7.3817359017231601E-003
 Lowest  eigenvalues of input Hessian
    0.000000    0.000000    0.000000    0.000000    0.000000    0.000000
    0.010000    0.010470    0.010877    0.014272    0.016057    0.017571
    0.018794    0.021630    0.023654    0.025657    0.026392    0.030668
 Highest eigenvalues
    1.910311    1.920886    1.929357    1.948557    1.961922    2.038087


........................................................................
.............................. CYCLE    1 ..............................
........................................................................

 iter      E             dE          RMSdq      gap      omega  full diag
   1    -58.5684015 -0.585684E+02  0.906E-04    0.28       0.0  T
   2    -58.5684009  0.555411E-06  0.327E-03    0.28       5.1  T
   3    -58.5684015 -0.595137E-06  0.238E-04    0.28      70.0  T
   4    -58.5684015 -0.259334E-09  0.161E-04    0.28     103.5  T
     SCC iter.                  ...        0 min,  0.016 sec
     gradient                   ...        0 min,  0.014 sec
 * total energy  :   -57.4649416 Eh     change       -0.3978453E-07 Eh
   gradient norm :     0.6155616 Eh/α   predicted     0.0000000E+00 (-100.00%)
   displ. norm   :     0.7216220 α      lambda       -0.4142000E+00
   maximum displ.:     0.3364326 α      in ANC's #73, #56, #57, ...

........................................................................
.............................. CYCLE    2 ..............................
........................................................................

 iter      E             dE          RMSdq      gap      omega  full diag
   1    -58.4361790 -0.584362E+02  0.611E-01    0.58       0.0  T
   2    -58.4104119  0.257671E-01  0.774E-01    0.30       1.0  T
   3    -58.4378416 -0.274298E-01  0.509E-01    0.63       1.0  T
   4    -58.4416205 -0.377887E-02  0.313E-01    0.53       1.0  T
   5    -58.4434016 -0.178111E-02  0.107E-01    0.40       1.0  T
   6    -58.4435718 -0.170207E-03  0.611E-02    0.42       1.0  T
   7    -58.4435689  0.293357E-05  0.325E-02    0.42       1.0  T
   8    -58.4435865 -0.176153E-04  0.211E-02    0.41       1.0  T
   9    -58.4435880 -0.145204E-05  0.138E-02    0.41       1.2  T
  10    -58.4435898 -0.180277E-05  0.642E-03    0.42       2.6  T
  11    -58.4435901 -0.308594E-06  0.385E-03    0.42       4.3  T
  12    -58.4435904 -0.327281E-06  0.234E-03    0.42       7.1  T
  13    -58.4435905 -0.557889E-07  0.138E-03    0.42      12.0  T
  14    -58.4435905 -0.197984E-07  0.801E-04    0.42      20.8  T
  15    -58.4435905 -0.676646E-08  0.470E-04    0.42      35.5  T
     SCC iter.                  ...        0 min,  0.063 sec
     gradient                   ...        0 min,  0.014 sec
 * total energy  :   -57.6363328 Eh     change       -0.1713912E+00 Eh
   gradient norm :     0.3257062 Eh/α   predicted    -0.3149499E+00 (  83.76%)
   displ. norm   :     0.7336116 α      lambda       -0.2223227E+00
   maximum displ.:     0.3951394 α      in ANC's #56, #57, #52, ...

........................................................................
.............................. CYCLE    3 ..............................
........................................................................

 iter      E             dE          RMSdq      gap      omega  full diag
   1    -58.1995263 -0.581995E+02  0.599E-01    0.51       0.0  T
   2    -58.1974294  0.209690E-02  0.427E-01    0.35       1.0  T
   3    -58.1960977  0.133168E-02  0.382E-01    0.64       1.0  T
   4    -58.2010958 -0.499806E-02  0.112E-01    0.49       1.0  T
   5    -58.2014104 -0.314589E-03  0.498E-02    0.45       1.0  T
   6    -58.2014231 -0.127105E-04  0.334E-02    0.44       1.0  T
   7    -58.2014193  0.371641E-05  0.163E-02    0.44       1.0  T
   8    -58.2014256 -0.626853E-05  0.823E-03    0.44       2.0  T
   9    -58.2014261 -0.477948E-06  0.608E-03    0.44       2.7  T
  10    -58.2014266 -0.477168E-06  0.405E-03    0.44       4.1  T
  11    -58.2014267 -0.155529E-06  0.271E-03    0.44       6.1  T
  12    -58.2014268 -0.813588E-07  0.125E-03    0.44      13.3  T
  13    -58.2014268 -0.161928E-07  0.831E-04    0.44      20.1  T
  14    -58.2014268 -0.890032E-08  0.614E-04    0.44      27.1  T
     SCC iter.                  ...        0 min,  0.056 sec
     gradient                   ...        0 min,  0.021 sec
 * total energy  :   -57.5928989 Eh     change        0.4343392E-01 Eh
   gradient norm :     0.2208082 Eh/α   predicted    -0.1709871E+00 (-493.67%)
   displ. norm   :     0.7884079 α      lambda       -0.1707460E+00
   maximum displ.:     0.4300654 α      in ANC's #56, #57, #52, ...

........................................................................
.............................. CYCLE    4 ..............................
........................................................................

 iter      E             dE          RMSdq      gap      omega  full diag
   1    -57.9027063 -0.579027E+02  0.627E-01    0.39       0.0  T
   2    -57.9029314 -0.225092E-03  0.365E-01    0.37       1.0  T
   3    -57.8999789  0.295248E-02  0.325E-01    0.50       1.0  T
   4    -57.9033264 -0.334744E-02  0.104E-01    0.36       1.0  T
   5    -57.9035907 -0.264271E-03  0.405E-02    0.40       1.0  T
   6    -57.9036135 -0.228208E-04  0.288E-02    0.39       1.0  T
   7    -57.9036213 -0.786670E-05  0.133E-02    0.39       1.3  T
   8    -57.9036250 -0.363684E-05  0.733E-03    0.39       2.3  T
   9    -57.9036252 -0.198928E-06  0.598E-03    0.39       2.8  T
  10    -57.9036257 -0.504187E-06  0.385E-03    0.39       4.3  T
  11    -57.9036258 -0.112573E-06  0.260E-03    0.39       6.4  T
  12    -57.9036259 -0.145375E-06  0.151E-03    0.39      11.0  T
  13    -57.9036260 -0.223186E-07  0.887E-04    0.39      18.8  T
  14    -57.9036260 -0.161587E-07  0.508E-04    0.39      32.8  T
     SCC iter.                  ...        0 min,  0.046 sec
     gradient                   ...        0 min,  0.015 sec
 * total energy  :   -57.4516466 Eh     change        0.1412523E+00 Eh
   gradient norm :     0.1594987 Eh/α   predicted    -0.1384398E+00 (-198.01%)
   displ. norm   :     0.7996294 α      lambda       -0.1264079E+00
   maximum displ.:     0.4400394 α      in ANC's #56, #57, #52, ...

........................................................................
.............................. CYCLE    5 ..............................
........................................................................

 iter      E             dE          RMSdq      gap      omega  full diag
   1    -57.5687790 -0.575688E+02  0.625E-01    0.24       0.0  T
   2    -57.5690783 -0.299343E-03  0.367E-01    0.38       1.0  T
   3    -57.5656329  0.344540E-02  0.373E-01    0.23       1.0  T
   4    -57.5695610 -0.392804E-02  0.139E-01    0.33       1.0  T
   5    -57.5700300 -0.469052E-03  0.648E-02    0.29       1.0  T
   6    -57.5701183 -0.882642E-04  0.397E-02    0.32       1.0  T
   7    -57.5701527 -0.344320E-04  0.212E-02    0.30       1.0  T
   8    -57.5701673 -0.145974E-04  0.105E-02    0.31       1.6  T
   9    -57.5701688 -0.151734E-05  0.667E-03    0.31       2.5  T
  10    -57.5701689 -0.162604E-07  0.541E-03    0.31       3.1  T
  11    -57.5701694 -0.596434E-06  0.334E-03    0.31       5.0  T
  12    -57.5701696 -0.120143E-06  0.189E-03    0.31       8.8  T
  13    -57.5701696 -0.197089E-07  0.136E-03    0.31      12.2  T
  14    -57.5701696 -0.345531E-07  0.879E-04    0.31      19.0  T
  15    -57.5701696 -0.573316E-08  0.538E-04    0.31      31.0  T
     SCC iter.                  ...        0 min,  0.051 sec
     gradient                   ...        0 min,  0.015 sec
 * total energy  :   -57.2367659 Eh     change        0.2148808E+00 Eh
   gradient norm :     0.1184631 Eh/α   predicted    -0.1036171E+00 (-148.22%)
   displ. norm   :     0.8024431 α      lambda       -0.9346355E-01
   maximum displ.:     0.4459765 α      in ANC's #56, #57, #52, ...

........................................................................
.............................. CYCLE    6 ..............................
........................................................................

 iter      E             dE          RMSdq      gap      omega  full diag
   1    -57.1968381 -0.571968E+02  0.717E-01    0.10       0.0  T
   2    -57.1882464  0.859172E-02  0.696E-01    0.86       1.0  T
   3    -57.2069036 -0.186573E-01  0.391E-01    0.34       1.0  T
   4    -57.2087001 -0.179650E-02  0.272E-01    0.19       1.0  T
   5    -57.2084214  0.278679E-03  0.204E-01    0.21       1.0  T
   6    -57.2070208  0.140064E-02  0.203E-01    0.17       1.0  T
   7    -57.2096148 -0.259405E-02  0.792E-02    0.27       1.0  T
   8    -57.2097304 -0.115544E-03  0.520E-02    0.27       1.0  T
   9    -57.2098436 -0.113211E-03  0.302E-02    0.25       1.0  T
  10    -57.2098697 -0.261483E-04  0.168E-02    0.24       1.0  T
  11    -57.2098769 -0.716132E-05  0.755E-03    0.23       2.2  T
  12    -57.2098775 -0.599171E-06  0.455E-03    0.23       3.7  T
  13    -57.2098777 -0.193869E-06  0.315E-03    0.23       5.3  T
  14    -57.2098779 -0.154562E-06  0.209E-03    0.23       8.0  T
  15    -57.2098779 -0.846714E-07  0.135E-03    0.23      12.4  T
  16    -57.2098780 -0.264684E-07  0.955E-04    0.23      17.5  T
  17    -57.2098780  0.390585E-08  0.770E-04    0.23      21.6  T
     SCC iter.                  ...        0 min,  0.064 sec
     gradient                   ...        0 min,  0.014 sec
 * total energy  :   -56.9658921 Eh     change        0.2708737E+00 Eh
   gradient norm :     0.0892484 Eh/α   predicted    -0.7682309E-01 (-128.36%)
   displ. norm   :     0.8054886 α      lambda       -0.6964853E-01
   maximum displ.:     0.4541426 α      in ANC's #56, #57, #52, ...

........................................................................
.............................. CYCLE    7 ..............................
........................................................................

 iter      E             dE          RMSdq      gap      omega  full diag
   1    -56.7304938 -0.567305E+02  0.133E+00    0.02       0.0  T
   2    -56.6253560  0.105138E+00  0.192E+00    1.16       1.0  T
   3    -56.8063284 -0.180972E+00  0.738E-01    0.92       1.0  T
   4    -56.8167655 -0.104371E-01  0.572E-01    0.58       1.0  T
   5    -56.8264428 -0.967733E-02  0.343E-01    0.40       1.0  T
   6    -56.8278313 -0.138850E-02  0.301E-01    0.24       1.0  T
   7    -56.8290153 -0.118398E-02  0.146E-01    0.16       1.0  T
   8    -56.8293666 -0.351323E-03  0.103E-01    0.17       1.0  T
   9    -56.8296172 -0.250618E-03  0.641E-02    0.21       1.0  T
  10    -56.8298194 -0.202134E-03  0.284E-02    0.19       1.0  T
  11    -56.8298369 -0.175180E-04  0.181E-02    0.19       1.0  T
  12    -56.8298410 -0.412628E-05  0.130E-02    0.19       1.3  T
  13    -56.8298427 -0.169462E-05  0.823E-03    0.19       2.0  T
  14    -56.8298443 -0.160878E-05  0.503E-03    0.19       3.3  T
  15    -56.8298449 -0.588480E-06  0.253E-03    0.19       6.6  T
  16    -56.8298449  0.410729E-07  0.230E-03    0.19       7.2  T
  17    -56.8298450 -0.135807E-06  0.129E-03    0.19      12.9  T
  18    -56.8298450 -0.165008E-07  0.964E-04    0.19      17.3  T
  19    -56.8298450  0.946622E-08  0.887E-04    0.19      18.8  T
     SCC iter.                  ...        0 min,  0.080 sec
     gradient                   ...        0 min,  0.020 sec
 * total energy  :   -56.6529172 Eh     change        0.3129749E+00 Eh
   gradient norm :     0.0679588 Eh/α   predicted    -0.5741867E-01 (-118.35%)
   displ. norm   :     0.8082482 α      lambda       -0.5218162E-01
   maximum displ.:     0.4636566 α      in ANC's #56, #57, #52, ...

........................................................................
.............................. CYCLE    8 ..............................
........................................................................

 iter      E             dE          RMSdq      gap      omega  full diag
   1    -56.2976314 -0.562976E+02  0.158E+00    0.04       0.0  T
   2    -56.0298360  0.267795E+00  0.255E+00    0.30       1.0  T
   3    -56.4033156 -0.373480E+00  0.860E-01    0.85       1.0  T
   4    -56.4146105 -0.112949E-01  0.723E-01    0.51       1.0  T
   5    -56.4330249 -0.184144E-01  0.408E-01    0.36       1.0  T
   6    -56.4357924 -0.276743E-02  0.351E-01    0.22       1.0  T
   7    -56.4366651 -0.872772E-03  0.221E-01    0.12       1.0  T
   8    -56.4371989 -0.533800E-03  0.164E-01    0.13       1.0  T
   9    -56.4381693 -0.970322E-03  0.969E-02    0.19       1.0  T
  10    -56.4386384 -0.469147E-03  0.545E-02    0.16       1.0  T
  11    -56.4387028 -0.643687E-04  0.349E-02    0.16       1.0  T
  12    -56.4387278 -0.249997E-04  0.237E-02    0.16       1.0  T
  13    -56.4387396 -0.117929E-04  0.164E-02    0.15       1.0  T
  14    -56.4387478 -0.823725E-05  0.840E-03    0.16       2.0  T
  15    -56.4387491 -0.128487E-05  0.570E-03    0.16       2.9  T
  16    -56.4387498 -0.663991E-06  0.416E-03    0.16       4.0  T
  17    -56.4387501 -0.338109E-06  0.279E-03    0.16       6.0  T
  18    -56.4387503 -0.239816E-06  0.198E-03    0.16       8.4  T
  19    -56.4387504 -0.991462E-07  0.126E-03    0.16      13.2  T
  20    -56.4387504  0.527059E-07  0.131E-03    0.16      12.8  T
  21    -56.4387505 -0.811278E-07  0.633E-04    0.16      26.3  T
  22    -56.4387505 -0.103469E-07  0.341E-04    0.16      48.9  T
     SCC iter.                  ...        0 min,  0.076 sec
     gradient                   ...        0 min,  0.013 sec
 * total energy  :   -56.3112770 Eh     change        0.3416402E+00 Eh
   gradient norm :     0.0510969 Eh/α   predicted    -0.4313504E-01 (-112.63%)
   displ. norm   :     0.7847956 α      lambda       -0.3664335E-01
   maximum displ.:     0.4495387 α      in ANC's #56, #57, #52, ...

........................................................................
.............................. CYCLE    9 ..............................
........................................................................

 iter      E             dE          RMSdq      gap      omega  full diag
   1    -55.9623734 -0.559624E+02  0.140E+00    0.09       0.0  T
   2    -55.6478824  0.314491E+00  0.238E+00    0.31       1.0  T
   3    -56.0312120 -0.383330E+00  0.792E-01    0.50       1.0  T
   4    -56.0362189 -0.500697E-02  0.664E-01    0.28       1.0  T
   5    -56.0568134 -0.205944E-01  0.368E-01    0.18       1.0  T
   6    -56.0555433  0.127011E-02  0.327E-01    0.15       1.0  T
   7    -56.0561469 -0.603635E-03  0.239E-01    0.16       1.0  T
   8    -56.0579703 -0.182340E-02  0.154E-01    0.14       1.0  T
   9    -56.0589302 -0.959837E-03  0.908E-02    0.17       1.0  T
  10    -56.0592839 -0.353742E-03  0.578E-02    0.16       1.0  T
  11    -56.0593669 -0.830340E-04  0.375E-02    0.17       1.0  T
  12    -56.0593635  0.340273E-05  0.354E-02    0.15       1.0  T
  13    -56.0594122 -0.486780E-04  0.217E-02    0.16       1.0  T
  14    -56.0594244 -0.121500E-04  0.138E-02    0.16       1.2  T
  15    -56.0594269 -0.252765E-05  0.875E-03    0.16       1.9  T
  16    -56.0594311 -0.419599E-05  0.478E-03    0.16       3.5  T
  17    -56.0594317 -0.646883E-06  0.268E-03    0.16       6.2  T
  18    -56.0594318 -0.932222E-07  0.211E-03    0.16       7.9  T
  19    -56.0594319 -0.124160E-06  0.113E-03    0.16      14.8  T
  20    -56.0594319 -0.217550E-08  0.935E-04    0.16      17.8  T
  21    -56.0594320 -0.255347E-07  0.517E-04    0.16      32.2  T
     SCC iter.                  ...        0 min,  0.108 sec
     gradient                   ...        0 min,  0.017 sec
 * total energy  :   -55.9664295 Eh     change        0.3448475E+00 Eh
   gradient norm :     0.0404995 Eh/α   predicted    -0.2960608E-01 (-108.59%)
   displ. norm   :     0.7821233 α      lambda       -0.2671803E-01
   maximum displ.:     0.4374290 α      in ANC's #56, #57, #52, ...

........................................................................
.............................. CYCLE   10 ..............................
........................................................................

 iter      E             dE          RMSdq      gap      omega  full diag
   1    -55.6076672 -0.556077E+02  0.138E+00    0.02       0.0  T
   2    -54.7393029  0.868364E+00  0.327E+00    0.10       1.0  T
   3    -55.6604596 -0.921157E+00  0.821E-01    0.22       1.0  T
   4    -55.6280238  0.324358E-01  0.103E+00    0.18       1.0  T
   5    -55.6873427 -0.593189E-01  0.450E-01    0.11       1.0  T
   6    -55.6854903  0.185237E-02  0.470E-01    0.16       1.0  T
   7    -55.6945745 -0.908415E-02  0.234E-01    0.13       1.0  T
   8    -55.6965658 -0.199138E-02  0.102E-01    0.14       1.0  T
   9    -55.6967226 -0.156767E-03  0.937E-02    0.13       1.0  T
  10    -55.6968950 -0.172402E-03  0.718E-02    0.12       1.0  T
  11    -55.6970108 -0.115762E-03  0.523E-02    0.13       1.0  T
  12    -55.6970917 -0.809169E-04  0.329E-02    0.13       1.0  T
  13    -55.6971017 -0.100017E-04  0.281E-02    0.13       1.0  T
  14    -55.6971242 -0.225259E-04  0.165E-02    0.13       1.0  T
  15    -55.6971282 -0.397035E-05  0.133E-02    0.13       1.3  T
  16    -55.6971358 -0.756963E-05  0.780E-03    0.13       2.1  T
  17    -55.6971370 -0.120856E-05  0.633E-03    0.13       2.6  T
  18    -55.6971373 -0.312798E-06  0.519E-03    0.13       3.2  T
  19    -55.6971380 -0.690141E-06  0.359E-03    0.13       4.6  T
  20    -55.6971383 -0.380387E-06  0.238E-03    0.13       7.0  T
  21    -55.6971384 -0.409860E-07  0.226E-03    0.13       7.4  T
  22    -55.6971385 -0.136030E-06  0.143E-03    0.13      11.7  T
  23    -55.6971386 -0.437418E-07  0.899E-04    0.13      18.5  T
  24    -55.6971386 -0.317971E-07  0.458E-04    0.13      36.4  T
     SCC iter.                  ...        0 min,  0.115 sec
     gradient                   ...        0 min,  0.017 sec
 * total energy  :   -55.6282014 Eh     change        0.3382281E+00 Eh
   gradient norm :     0.0300391 Eh/α   predicted    -0.2153097E-01 (-106.37%)
   displ. norm   :     0.7195329 α      lambda       -0.1640087E-01
   maximum displ.:     0.3851795 α      in ANC's #56, #57, #52, ...

........................................................................
.............................. CYCLE   11 ..............................
........................................................................

 iter      E             dE          RMSdq      gap      omega  full diag
   1    -55.2907181 -0.552907E+02  0.153E+00    0.06       0.0  T
   2    -53.1532470  0.213747E+01  0.473E+00    0.24       1.0  T
   3    -55.2153204 -0.206207E+01  0.137E+00    0.11       1.0  T
   4    -55.1470836  0.682368E-01  0.173E+00    0.18       1.0  T
   5    -55.3143828 -0.167299E+00  0.115E+00    0.08       1.0  T
   6    -55.3683875 -0.540046E-01  0.766E-01    0.11       1.0  T
   7    -55.3732361 -0.484862E-02  0.574E-01    0.11       1.0  T
   8    -55.3867013 -0.134653E-01  0.435E-01    0.09       1.0  T
   9    -55.3909053 -0.420396E-02  0.306E-01    0.06       1.0  T
  10    -55.3931417 -0.223643E-02  0.188E-01    0.08       1.0  T
  11    -55.3936711 -0.529361E-03  0.163E-01    0.06       1.0  T
  12    -55.3948930 -0.122188E-02  0.740E-02    0.07       1.0  T
  13    -55.3948454  0.475573E-04  0.698E-02    0.07       1.0  T
  14    -55.3947205  0.124879E-03  0.818E-02    0.08       1.0  T
  15    -55.3948861 -0.165529E-03  0.600E-02    0.07       1.0  T
  16    -55.3950391 -0.153052E-03  0.230E-02    0.07       1.0  T
  17    -55.3950681 -0.289985E-04  0.104E-02    0.07       1.6  T
  18    -55.3950672  0.930221E-06  0.101E-02    0.07       1.7  T
  19    -55.3950692 -0.198526E-05  0.960E-03    0.07       1.7  T
  20    -55.3950677  0.149326E-05  0.963E-03    0.07       1.7  T
  21    -55.3950697 -0.207378E-05  0.728E-03    0.07       2.3  T
  22    -55.3950721 -0.230812E-05  0.365E-03    0.07       4.6  T
  23    -55.3950715  0.563784E-06  0.501E-03    0.07       3.3  T
  24    -55.3950717 -0.253329E-06  0.448E-03    0.07       3.7  T
  25    -55.3950724 -0.666639E-06  0.172E-03    0.07       9.7  T
  26    -55.3950725 -0.109884E-06  0.675E-04    0.07      24.7  T
  27    -55.3950725 -0.566157E-08  0.673E-04    0.07      24.8  T
     SCC iter.                  ...        0 min,  0.116 sec
     gradient                   ...        0 min,  0.014 sec
 * total energy  :   -55.3410174 Eh     change        0.2871841E+00 Eh
   gradient norm :     0.0223031 Eh/α   predicted    -0.1244606E-01 (-104.33%)
   displ. norm   :     0.7070203 α      lambda       -0.1093070E-01
   maximum displ.:     0.3567848 α      in ANC's #56, #57, #8, ...

........................................................................
.............................. CYCLE   12 ..............................
........................................................................

 iter      E             dE          RMSdq      gap      omega  full diag
   1    -55.0863944 -0.550864E+02  0.123E+00    0.12       0.0  T
   2    -53.7301722  0.135622E+01  0.372E+00    0.14       1.0  T
   3    -54.9784145 -0.124824E+01  0.141E+00    0.09       1.0  T
   4    -55.0066420 -0.282275E-01  0.137E+00    0.15       1.0  T
   5    -54.9694061  0.372358E-01  0.157E+00    0.07       1.0  T
   6    -55.0888159 -0.119410E+00  0.100E+00    0.16       1.0  T
   7    -55.0949134 -0.609747E-02  0.804E-01    0.13       1.0  T
   8    -55.1137901 -0.188767E-01  0.685E-01    0.12       1.0  T
   9    -55.1045077  0.928240E-02  0.717E-01    0.13       1.0  T
  10    -55.1264168 -0.219091E-01  0.443E-01    0.11       1.0  T
  11    -55.1398660 -0.134492E-01  0.150E-01    0.06       1.0  T
  12    -55.1398983 -0.323280E-04  0.155E-01    0.08       1.0  T
  13    -55.1404440 -0.545729E-03  0.102E-01    0.07       1.0  T
  14    -55.1401624  0.281677E-03  0.120E-01    0.07       1.0  T
  15    -55.1404709 -0.308570E-03  0.944E-02    0.07       1.0  T
  16    -55.1406544 -0.183447E-03  0.588E-02    0.08       1.0  T
  17    -55.1408874 -0.232985E-03  0.168E-02    0.07       1.0  T
  18    -55.1408853  0.209116E-05  0.175E-02    0.07       1.0  T
  19    -55.1408862 -0.882973E-06  0.139E-02    0.07       1.2  T
  20    -55.1408867 -0.545240E-06  0.114E-02    0.07       1.5  T
  21    -55.1408911 -0.439025E-05  0.924E-03    0.07       1.8  T
  22    -55.1408935 -0.237266E-05  0.659E-03    0.07       2.5  T
  23    -55.1408935 -0.202562E-07  0.586E-03    0.07       2.8  T
  24    -55.1408927  0.738064E-06  0.727E-03    0.07       2.3  T
  25    -55.1408950 -0.223217E-05  0.305E-03    0.07       5.5  T
  26    -55.1408954 -0.444556E-06  0.115E-03    0.07      14.5  T
  27    -55.1408954  0.632067E-08  0.114E-03    0.07      14.6  T
  28    -55.1408955 -0.448071E-07  0.503E-04    0.07      33.2  T
  29    -55.1408955 -0.112928E-07  0.267E-04    0.07      62.4  T
     SCC iter.                  ...        0 min,  0.112 sec
     gradient                   ...        0 min,  0.017 sec
 * total energy  :   -55.0961714 Eh     change        0.2448459E+00 Eh
   gradient norm :     0.0186461 Eh/α   predicted    -0.8197399E-02 (-103.35%)
   displ. norm   :     0.7218436 α      lambda       -0.8121592E-02
   maximum displ.:     0.3358724 α      in ANC's #56, #57, #8, ...

........................................................................
.............................. CYCLE   13 ..............................
........................................................................

 iter      E             dE          RMSdq      gap      omega  full diag
   1    -54.9009585 -0.549010E+02  0.902E-01    0.16       0.0  T
   2    -54.3111459  0.589813E+00  0.253E+00    0.32       1.0  T
   3    -54.7997487 -0.488603E+00  0.134E+00    0.17       1.0  T
   4    -54.8879477 -0.881990E-01  0.842E-01    0.12       1.0  T
   5    -54.8972710 -0.932326E-02  0.769E-01    0.15       1.0  T
   6    -54.9117121 -0.144411E-01  0.501E-01    0.12       1.0  T
   7    -54.9188196 -0.710754E-02  0.393E-01    0.15       1.0  T
   8    -54.9199168 -0.109721E-02  0.339E-01    0.12       1.0  T
   9    -54.9222157 -0.229888E-02  0.286E-01    0.14       1.0  T
  10    -54.9235459 -0.133014E-02  0.231E-01    0.14       1.0  T
  11    -54.9256047 -0.205883E-02  0.119E-01    0.14       1.0  T
  12    -54.9257907 -0.186030E-03  0.927E-02    0.15       1.0  T
  13    -54.9259581 -0.167332E-03  0.790E-02    0.13       1.0  T
  14    -54.9262470 -0.288966E-03  0.473E-02    0.14       1.0  T
  15    -54.9262832 -0.361471E-04  0.357E-02    0.14       1.0  T
  16    -54.9263657 -0.825468E-04  0.195E-02    0.14       1.0  T
  17    -54.9263761 -0.104074E-04  0.128E-02    0.14       1.3  T
  18    -54.9263761  0.331428E-07  0.109E-02    0.14       1.5  T
  19    -54.9263794 -0.330909E-05  0.823E-03    0.14       2.0  T
  20    -54.9263821 -0.273727E-05  0.614E-03    0.14       2.7  T
  21    -54.9263821  0.786787E-08  0.523E-03    0.14       3.2  T
  22    -54.9263829 -0.727249E-06  0.334E-03    0.14       5.0  T
  23    -54.9263831 -0.244322E-06  0.239E-03    0.14       7.0  T
  24    -54.9263833 -0.185280E-06  0.133E-03    0.14      12.5  T
  25    -54.9263833  0.456566E-09  0.123E-03    0.14      13.6  T
  26    -54.9263833 -0.707396E-08  0.115E-03    0.14      14.5  T
  27    -54.9263833 -0.385721E-07  0.598E-04    0.14      27.9  T
  28    -54.9263834 -0.214458E-07  0.187E-04    0.14      89.1  T
     SCC iter.                  ...        0 min,  0.133 sec
     gradient                   ...        0 min,  0.015 sec
 * total energy  :   -54.8868596 Eh     change        0.2093118E+00 Eh
   gradient norm :     0.0170803 Eh/α   predicted    -0.6176710E-02 (-102.95%)
   displ. norm   :     0.6962712 α      lambda       -0.6031161E-02
   maximum displ.:     0.2840117 α      in ANC's #56, #8, #3, ...

........................................................................
.............................. CYCLE   14 ..............................
........................................................................

 iter      E             dE          RMSdq      gap      omega  full diag
   1    -54.7336495 -0.547336E+02  0.726E-01    0.13       0.0  T
   2    -54.1978801  0.535769E+00  0.230E+00    0.17       1.0  T
   3    -54.6978905 -0.500010E+00  0.919E-01    0.19       1.0  T
   4    -54.6754367  0.224538E-01  0.104E+00    0.11       1.0  T
   5    -54.7141081 -0.386714E-01  0.773E-01    0.15       1.0  T
   6    -54.7386160 -0.245079E-01  0.499E-01    0.13       1.0  T
   7    -54.7399605 -0.134452E-02  0.462E-01    0.12       1.0  T
   8    -54.7441642 -0.420369E-02  0.385E-01    0.18       1.0  T
   9    -54.7527110 -0.854681E-02  0.178E-01    0.15       1.0  T
  10    -54.7516050  0.110606E-02  0.219E-01    0.15       1.0  T
  11    -54.7530471 -0.144216E-02  0.171E-01    0.14       1.0  T
  12    -54.7543685 -0.132133E-02  0.812E-02    0.15       1.0  T
  13    -54.7546171 -0.248666E-03  0.538E-02    0.15       1.0  T
  14    -54.7546158  0.136312E-05  0.413E-02    0.15       1.0  T
  15    -54.7547074 -0.916353E-04  0.249E-02    0.15       1.0  T
  16    -54.7546986  0.884129E-05  0.245E-02    0.14       1.0  T
  17    -54.7547292 -0.306500E-04  0.129E-02    0.14       1.3  T
  18    -54.7547300 -0.743207E-06  0.109E-02    0.15       1.5  T
  19    -54.7547343 -0.429710E-05  0.558E-03    0.15       3.0  T
  20    -54.7547351 -0.881952E-06  0.372E-03    0.15       4.5  T
  21    -54.7547354 -0.282542E-06  0.320E-03    0.15       5.2  T
  22    -54.7547357 -0.306047E-06  0.201E-03    0.15       8.3  T
  23    -54.7547358 -0.445097E-07  0.166E-03    0.15      10.0  T
  24    -54.7547358 -0.542139E-07  0.117E-03    0.15      14.3  T
  25    -54.7547358  0.771088E-08  0.113E-03    0.15      14.8  T
  26    -54.7547359 -0.519806E-07  0.514E-04    0.15      32.4  T
  27    -54.7547359  0.731581E-08  0.593E-04    0.15      28.1  T
     SCC iter.                  ...        0 min,  0.103 sec
     gradient                   ...        0 min,  0.015 sec
 * total energy  :   -54.7174632 Eh     change        0.1693964E+00 Eh
   gradient norm :     0.0183730 Eh/α   predicted    -0.4477517E-02 (-102.64%)
   displ. norm   :     0.6771946 α      lambda       -0.5717231E-02
   maximum displ.:     0.3003872 α      in ANC's #8, #3, #56, ...

........................................................................
.............................. CYCLE   15 ..............................
........................................................................

 iter      E             dE          RMSdq      gap      omega  full diag
   1    -54.6025575 -0.546026E+02  0.718E-01    0.08       0.0  T
   2    -53.6262869  0.976271E+00  0.306E+00    0.10       1.0  T
   3    -54.5770098 -0.950723E+00  0.837E-01    0.19       1.0  T
   4    -54.5610917  0.159181E-01  0.992E-01    0.10       1.0  T
   5    -54.5607523  0.339431E-03  0.963E-01    0.08       1.0  T
   6    -54.6063184 -0.455662E-01  0.521E-01    0.10       1.0  T
   7    -54.6128805 -0.656205E-02  0.425E-01    0.12       1.0  T
   8    -54.6176931 -0.481262E-02  0.364E-01    0.11       1.0  T
   9    -54.6228426 -0.514952E-02  0.172E-01    0.11       1.0  T
  10    -54.6216799  0.116278E-02  0.230E-01    0.12       1.0  T
  11    -54.6243810 -0.270115E-02  0.978E-02    0.11       1.0  T
  12    -54.6245234 -0.142361E-03  0.801E-02    0.12       1.0  T
  13    -54.6245791 -0.556948E-04  0.687E-02    0.11       1.0  T
  14    -54.6248608 -0.281763E-03  0.378E-02    0.11       1.0  T
  15    -54.6248556  0.527652E-05  0.322E-02    0.11       1.0  T
  16    -54.6249031 -0.475986E-04  0.217E-02    0.11       1.0  T
  17    -54.6249292 -0.260550E-04  0.119E-02    0.11       1.4  T
  18    -54.6249328 -0.355963E-05  0.782E-03    0.11       2.1  T
  19    -54.6249343 -0.153788E-05  0.598E-03    0.11       2.8  T
  20    -54.6249349 -0.597989E-06  0.402E-03    0.11       4.1  T
  21    -54.6249357 -0.755213E-06  0.268E-03    0.11       6.2  T
  22    -54.6249358 -0.134784E-06  0.198E-03    0.11       8.4  T
  23    -54.6249360 -0.184202E-06  0.104E-03    0.11      16.0  T
  24    -54.6249360 -0.545648E-08  0.102E-03    0.11      16.3  T
  25    -54.6249360 -0.213498E-07  0.728E-04    0.11      22.9  T
  26    -54.6249360 -0.152483E-07  0.505E-04    0.11      33.0  T
     SCC iter.                  ...        0 min,  0.112 sec
     gradient                   ...        0 min,  0.016 sec
 * total energy  :   -54.5890905 Eh     change        0.1283726E+00 Eh
   gradient norm :     0.0176557 Eh/α   predicted    -0.4169559E-02 (-103.25%)
   displ. norm   :     0.7755330 α      lambda       -0.7731575E-02
   maximum displ.:     0.3429951 α      in ANC's #8, #3, #45, ...

........................................................................
.............................. CYCLE   16 ..............................
........................................................................

 iter      E             dE          RMSdq      gap      omega  full diag
   1    -54.4801558 -0.544802E+02  0.103E+00    0.08       0.0  T
   2    -52.5180242  0.196213E+01  0.426E+00    0.17       1.0  T
   3    -54.4449137 -0.192689E+01  0.107E+00    0.12       1.0  T
   4    -54.3317511  0.113163E+00  0.159E+00    0.12       1.0  T
   5    -54.4185451 -0.867941E-01  0.108E+00    0.02       1.0  T
   6    -54.4798729 -0.613277E-01  0.760E-01    0.19       1.0  T
   7    -54.5092010 -0.293281E-01  0.497E-01    0.09       1.0  T
   8    -54.5008764  0.832457E-02  0.578E-01    0.14       1.0  T
   9    -54.5161613 -0.152849E-01  0.286E-01    0.12       1.0  T
  10    -54.5187990 -0.263770E-02  0.207E-01    0.10       1.0  T
  11    -54.5180762  0.722758E-03  0.219E-01    0.09       1.0  T
  12    -54.5185871 -0.510836E-03  0.191E-01    0.10       1.0  T
  13    -54.5202084 -0.162137E-02  0.101E-01    0.09       1.0  T
  14    -54.5208946 -0.686120E-03  0.568E-02    0.09       1.0  T
  15    -54.5210508 -0.156226E-03  0.347E-02    0.09       1.0  T
  16    -54.5210486  0.220814E-05  0.343E-02    0.09       1.0  T
  17    -54.5210758 -0.272061E-04  0.255E-02    0.09       1.0  T
  18    -54.5210967 -0.209410E-04  0.186E-02    0.09       1.0  T
  19    -54.5211164 -0.196407E-04  0.809E-03    0.09       2.1  T
  20    -54.5211150  0.132439E-05  0.780E-03    0.09       2.1  T
  21    -54.5211187 -0.364145E-05  0.426E-03    0.09       3.9  T
  22    -54.5211188 -0.916028E-07  0.377E-03    0.09       4.4  T
  23    -54.5211192 -0.440162E-06  0.249E-03    0.09       6.7  T
  24    -54.5211192  0.207605E-07  0.232E-03    0.09       7.2  T
  25    -54.5211194 -0.241415E-06  0.121E-03    0.09      13.8  T
  26    -54.5211194  0.305520E-07  0.120E-03    0.09      13.9  T
  27    -54.5211194 -0.414785E-07  0.786E-04    0.09      21.2  T
  28    -54.5211195 -0.114265E-07  0.676E-04    0.09      24.6  T
     SCC iter.                  ...        0 min,  0.173 sec
     gradient                   ...        0 min,  0.014 sec
 * total energy  :   -54.4853861 Eh     change        0.1037044E+00 Eh
   gradient norm :     0.0145951 Eh/α   predicted    -0.6190896E-02 (-105.97%)
   displ. norm   :     0.7489875 α      lambda       -0.6817808E-02
   maximum displ.:     0.2913185 α      in ANC's #8, #45, #3, ...

........................................................................
.............................. CYCLE   17 ..............................
........................................................................

 iter      E             dE          RMSdq      gap      omega  full diag
   1    -54.4056674 -0.544057E+02  0.104E+00    0.09       0.0  T
   2    -51.8750844  0.253058E+01  0.453E+00    0.14       1.0  T
   3    -54.3314128 -0.245633E+01  0.147E+00    0.24       1.0  T
   4    -54.3174122  0.140005E-01  0.160E+00    0.10       1.0  T
   5    -54.3640580 -0.466458E-01  0.121E+00    0.17       1.0  T
   6    -54.3883779 -0.243198E-01  0.940E-01    0.14       1.0  T
   7    -54.4352679 -0.468900E-01  0.624E-01    0.14       1.0  T
   8    -54.4434903 -0.822237E-02  0.463E-01    0.12       1.0  T
   9    -54.4496858 -0.619552E-02  0.321E-01    0.15       1.0  T
  10    -54.4546031 -0.491726E-02  0.246E-01    0.12       1.0  T
  11    -54.4560358 -0.143270E-02  0.189E-01    0.14       1.0  T
  12    -54.4564331 -0.397311E-03  0.171E-01    0.12       1.0  T
  13    -54.4579797 -0.154661E-02  0.828E-02    0.13       1.0  T
  14    -54.4574236  0.556126E-03  0.964E-02    0.12       1.0  T
  15    -54.4582175 -0.793942E-03  0.385E-02    0.13       1.0  T
  16    -54.4582438 -0.263322E-04  0.304E-02    0.13       1.0  T
  17    -54.4582847 -0.408359E-04  0.203E-02    0.13       1.0  T
  18    -54.4582923 -0.767457E-05  0.146E-02    0.13       1.1  T
  19    -54.4582949 -0.250832E-05  0.116E-02    0.13       1.4  T
  20    -54.4582995 -0.464905E-05  0.755E-03    0.13       2.2  T
  21    -54.4583018 -0.226973E-05  0.473E-03    0.13       3.5  T
  22    -54.4583018 -0.459374E-07  0.418E-03    0.13       4.0  T
  23    -54.4583021 -0.252678E-06  0.326E-03    0.13       5.1  T
  24    -54.4583023 -0.195252E-06  0.273E-03    0.13       6.1  T
  25    -54.4583025 -0.198344E-06  0.228E-03    0.13       7.3  T
  26    -54.4583025 -0.279832E-07  0.202E-03    0.13       8.2  T
  27    -54.4583027 -0.181613E-06  0.988E-04    0.13      16.9  T
  28    -54.4583027 -0.129853E-07  0.738E-04    0.13      22.6  T
     SCC iter.                  ...        0 min,  0.123 sec
     gradient                   ...        0 min,  0.019 sec
 * total energy  :   -54.4197743 Eh     change        0.6561181E-01 Eh
   gradient norm :     0.0152598 Eh/α   predicted    -0.5321238E-02 (-108.11%)
   displ. norm   :     0.5895116 α      lambda       -0.3967560E-02
   maximum displ.:     0.2493120 α      in ANC's #45, #8, #5, ...

........................................................................
.............................. CYCLE   18 ..............................
........................................................................

 iter      E             dE          RMSdq      gap      omega  full diag
   1    -54.3508069 -0.543508E+02  0.102E+00    0.10       0.0  T
   2    -49.8620856  0.448872E+01  0.564E+00    0.10       1.0  T
   3    -54.2955408 -0.443346E+01  0.145E+00    0.21       1.0  T
   4    -54.2443078  0.512330E-01  0.156E+00    0.18       1.0  T
   5    -54.2928957 -0.485878E-01  0.132E+00    0.22       1.0  T
   6    -54.4008147 -0.107919E+00  0.519E-01    0.19       1.0  T
   7    -54.4014743 -0.659556E-03  0.527E-01    0.17       1.0  T
   8    -54.4072365 -0.576228E-02  0.452E-01    0.18       1.0  T
   9    -54.4118587 -0.462219E-02  0.392E-01    0.15       1.0  T
  10    -54.4199021 -0.804338E-02  0.225E-01    0.16       1.0  T
  11    -54.4221969 -0.229476E-02  0.129E-01    0.15       1.0  T
  12    -54.4223116 -0.114681E-03  0.107E-01    0.15       1.0  T
  13    -54.4223736 -0.620663E-04  0.104E-01    0.14       1.0  T
  14    -54.4224284 -0.547455E-04  0.772E-02    0.15       1.0  T
  15    -54.4224345 -0.612491E-05  0.696E-02    0.14       1.0  T
  16    -54.4226020 -0.167554E-03  0.698E-02    0.15       1.0  T
  17    -54.4226588 -0.567108E-04  0.567E-02    0.15       1.0  T
  18    -54.4227095 -0.507321E-04  0.415E-02    0.15       1.0  T
  19    -54.4227584 -0.488990E-04  0.240E-02    0.15       1.0  T
  20    -54.4227839 -0.255391E-04  0.156E-02    0.15       1.1  T
  21    -54.4227838  0.124689E-06  0.148E-02    0.15       1.1  T
  22    -54.4227889 -0.513199E-05  0.114E-02    0.15       1.5  T
  23    -54.4227946 -0.568848E-05  0.532E-03    0.15       3.1  T
  24    -54.4227955 -0.833915E-06  0.328E-03    0.15       5.1  T
  25    -54.4227956 -0.167878E-06  0.282E-03    0.15       5.9  T
  26    -54.4227956  0.221666E-07  0.259E-03    0.15       6.4  T
  27    -54.4227958 -0.234502E-06  0.147E-03    0.15      11.3  T
  28    -54.4227958  0.365334E-07  0.153E-03    0.15      10.9  T
  29    -54.4227958 -0.223999E-07  0.141E-03    0.15      11.8  T
  30    -54.4227959 -0.718270E-07  0.694E-04    0.15      24.0  T
  31    -54.4227959 -0.218564E-07  0.367E-04    0.15      45.4  T
     SCC iter.                  ...        0 min,  0.144 sec
     gradient                   ...        0 min,  0.014 sec
 * total energy  :   -54.3807987 Eh     change        0.3897563E-01 Eh
   gradient norm :     0.0191740 Eh/α   predicted    -0.2673193E-02 (-106.86%)
   displ. norm   :     0.5410515 α      lambda       -0.3510870E-02
   maximum displ.:     0.2641346 α      in ANC's #45, #5, #43, ...

........................................................................
.............................. CYCLE   19 ..............................
........................................................................

 iter      E             dE          RMSdq      gap      omega  full diag
   1    -54.2589447 -0.542589E+02  0.137E+00    0.14       0.0  T
   2    -45.3965522  0.886239E+01  0.747E+00    0.07       1.0  T
   3    -54.0492410 -0.865269E+01  0.226E+00    0.24       1.0  T
   4    -53.9907738  0.584671E-01  0.224E+00    0.19       1.0  T
   5    -54.2400688 -0.249295E+00  0.144E+00    0.16       1.0  T
   6    -54.3864741 -0.146405E+00  0.542E-01    0.14       1.0  T
   7    -54.3936773 -0.720320E-02  0.428E-01    0.13       1.0  T
   8    -54.3928017  0.875628E-03  0.428E-01    0.14       1.0  T
   9    -54.3973843 -0.458261E-02  0.342E-01    0.12       1.0  T
  10    -54.3984122 -0.102788E-02  0.247E-01    0.13       1.0  T
  11    -54.4028520 -0.443981E-02  0.111E-01    0.12       1.0  T
  12    -54.4025485  0.303534E-03  0.133E-01    0.12       1.0  T
  13    -54.4031200 -0.571536E-03  0.101E-01    0.12       1.0  T
  14    -54.4030982  0.218625E-04  0.878E-02    0.12       1.0  T
  15    -54.4033978 -0.299657E-03  0.589E-02    0.12       1.0  T
  16    -54.4034443 -0.464489E-04  0.478E-02    0.12       1.0  T
  17    -54.4035178 -0.735256E-04  0.450E-02    0.13       1.0  T
  18    -54.4035591 -0.412845E-04  0.316E-02    0.12       1.0  T
  19    -54.4035738 -0.146994E-04  0.216E-02    0.12       1.0  T
  20    -54.4035919 -0.180875E-04  0.969E-03    0.12       1.7  T
  21    -54.4035931 -0.124143E-05  0.758E-03    0.12       2.2  T
  22    -54.4035933 -0.164153E-06  0.817E-03    0.12       2.0  T
  23    -54.4035939 -0.610458E-06  0.758E-03    0.12       2.2  T
  24    -54.4035950 -0.113873E-05  0.574E-03    0.12       2.9  T
  25    -54.4035956 -0.534901E-06  0.334E-03    0.12       5.0  T
  26    -54.4035956 -0.827803E-07  0.253E-03    0.12       6.6  T
  27    -54.4035959 -0.248676E-06  0.209E-03    0.12       8.0  T
  28    -54.4035960 -0.137367E-06  0.124E-03    0.12      13.4  T
  29    -54.4035960  0.174440E-07  0.119E-03    0.12      14.0  T
  30    -54.4035961 -0.652160E-07  0.519E-04    0.12      32.1  T
  31    -54.4035961 -0.454678E-08  0.412E-04    0.12      40.4  T
     SCC iter.                  ...        0 min,  0.103 sec
     gradient                   ...        0 min,  0.013 sec
 * total energy  :   -54.3585948 Eh     change        0.2220389E-01 Eh
   gradient norm :     0.0225789 Eh/α   predicted    -0.2269315E-02 (-110.22%)
   displ. norm   :     0.4929361 α      lambda       -0.3897544E-02
   maximum displ.:     0.2409558 α      in ANC's #45, #43, #48, ...

........................................................................
.............................. CYCLE   20 ..............................
........................................................................

 iter      E             dE          RMSdq      gap      omega  full diag
   1    -54.2486151 -0.542486E+02  0.140E+00    0.21       0.0  T
   2    -43.9868414  0.102618E+02  0.795E+00    0.15       1.0  T
   3    -54.0665100 -0.100797E+02  0.210E+00    0.16       1.0  T
   4    -54.0313914  0.351186E-01  0.208E+00    0.09       1.0  T
   5    -54.1533841 -0.121993E+00  0.179E+00    0.10       1.0  T
   6    -54.3875794 -0.234195E+00  0.481E-01    0.11       1.0  T
   7    -54.3847572  0.282213E-02  0.451E-01    0.10       1.0  T
   8    -54.3885643 -0.380704E-02  0.361E-01    0.11       1.0  T
   9    -54.3862872  0.227709E-02  0.375E-01    0.11       1.0  T
  10    -54.3887639 -0.247668E-02  0.308E-01    0.11       1.0  T
  11    -54.3931938 -0.442989E-02  0.182E-01    0.10       1.0  T
  12    -54.3949554 -0.176169E-02  0.124E-01    0.10       1.0  T
  13    -54.3955227 -0.567229E-03  0.676E-02    0.10       1.0  T
  14    -54.3955506 -0.279439E-04  0.593E-02    0.10       1.0  T
  15    -54.3956139 -0.633150E-04  0.389E-02    0.10       1.0  T
  16    -54.3956804 -0.664958E-04  0.286E-02    0.10       1.0  T
  17    -54.3956901 -0.967026E-05  0.217E-02    0.10       1.0  T
  18    -54.3956969 -0.676540E-05  0.185E-02    0.10       1.0  T
  19    -54.3957130 -0.161634E-04  0.130E-02    0.10       1.3  T
  20    -54.3957114  0.161184E-05  0.124E-02    0.10       1.3  T
  21    -54.3957108  0.624251E-06  0.111E-02    0.10       1.5  T
  22    -54.3957163 -0.549566E-05  0.644E-03    0.10       2.6  T
  23    -54.3957181 -0.180218E-05  0.359E-03    0.10       4.6  T
  24    -54.3957182 -0.135496E-06  0.269E-03    0.10       6.2  T
  25    -54.3957184 -0.194010E-06  0.258E-03    0.10       6.5  T
  26    -54.3957184 -0.285452E-07  0.251E-03    0.10       6.6  T
  27    -54.3957185 -0.548338E-07  0.214E-03    0.10       7.8  T
  28    -54.3957185 -0.221809E-07  0.159E-03    0.10      10.5  T
  29    -54.3957186 -0.681267E-07  0.937E-04    0.10      17.8  T
  30    -54.3957186 -0.156982E-07  0.563E-04    0.10      29.6  T
     SCC iter.                  ...        0 min,  0.108 sec
     gradient                   ...        0 min,  0.013 sec
 * total energy  :   -54.3499241 Eh     change        0.8670648E-02 Eh
   gradient norm :     0.0217959 Eh/α   predicted    -0.2422298E-02 (-127.94%)
   displ. norm   :     0.6551907 α      lambda       -0.6240188E-02
   maximum displ.:     0.2895629 α      in ANC's #45, #43, #18, ...
 * RMSD in coord.:     1.8074681 α      energy gain   0.3115017E+01 Eh

generating ANC from exact Hessian ...
Using Lindh-Hessian (1995)
 Shifting diagonal of input Hessian by    1.2636231387372406E-002
 Lowest  eigenvalues of input Hessian
    0.010000    0.010742    0.011360    0.012057    0.012548    0.012566
    0.000000    0.000000    0.000000    0.000000    0.000000    0.000000
    0.012682    0.012757    0.012860    0.012903    0.012911    0.012934
 Highest eigenvalues
    0.293076    0.304938    0.360532    0.380480    0.422953    0.602869


........................................................................
.............................. CYCLE   21 ..............................
........................................................................

 iter      E             dE          RMSdq      gap      omega  full diag
   1    -54.2542374 -0.542542E+02  0.134E+00    0.30       0.0  T
   2    -45.5701477  0.868409E+01  0.739E+00    0.13       1.0  T
   3    -54.0639140 -0.849377E+01  0.195E+00    0.20       1.0  T
   4    -54.2976929 -0.233779E+00  0.106E+00    0.12       1.0  T
   5    -54.2606649  0.370280E-01  0.117E+00    0.16       1.0  T
   6    -54.3193328 -0.586679E-01  0.868E-01    0.14       1.0  T
   7    -54.3557477 -0.364149E-01  0.558E-01    0.11       1.0  T
   8    -54.3540698  0.167793E-02  0.515E-01    0.15       1.0  T
   9    -54.3645687 -0.104989E-01  0.411E-01    0.12       1.0  T
  10    -54.3695714 -0.500278E-02  0.306E-01    0.14       1.0  T
  11    -54.3736114 -0.403994E-02  0.202E-01    0.12       1.0  T
  12    -54.3754275 -0.181611E-02  0.127E-01    0.13       1.0  T
  13    -54.3760354 -0.607959E-03  0.848E-02    0.12       1.0  T
  14    -54.3762384 -0.202938E-03  0.629E-02    0.12       1.0  T
  15    -54.3762453 -0.692915E-05  0.541E-02    0.12       1.0  T
  16    -54.3763251 -0.797561E-04  0.410E-02    0.12       1.0  T
  17    -54.3763834 -0.583646E-04  0.269E-02    0.12       1.0  T
  18    -54.3763925 -0.910460E-05  0.232E-02    0.12       1.0  T
  19    -54.3764177 -0.251596E-04  0.103E-02    0.12       1.6  T
  20    -54.3764225 -0.482143E-05  0.833E-03    0.12       2.0  T
  21    -54.3764213  0.125483E-05  0.885E-03    0.12       1.9  T
  22    -54.3764241 -0.283895E-05  0.591E-03    0.12       2.8  T
  23    -54.3764249 -0.768506E-06  0.352E-03    0.12       4.7  T
  24    -54.3764251 -0.244789E-06  0.265E-03    0.12       6.3  T
  25    -54.3764253 -0.174978E-06  0.171E-03    0.12       9.8  T
  26    -54.3764252  0.662877E-07  0.179E-03    0.12       9.3  T
  27    -54.3764254 -0.187112E-06  0.149E-03    0.12      11.2  T
  28    -54.3764254 -0.386846E-07  0.113E-03    0.12      14.7  T
  29    -54.3764254  0.486791E-08  0.933E-04    0.12      17.9  T
  30    -54.3764255 -0.404170E-07  0.294E-04    0.12      56.6  T
     SCC iter.                  ...        0 min,  0.097 sec
     gradient                   ...        0 min,  0.013 sec
 * total energy  :   -54.3313236 Eh     change        0.1860058E-01 Eh
   gradient norm :     0.0211802 Eh/α   predicted     0.0000000E+00 (-100.00%)
   displ. norm   :     0.3326877 α      lambda       -0.4700510E-02
   maximum displ.:     0.1433416 α      in ANC's #31, #44, #53, ...

........................................................................
.............................. CYCLE   22 ..............................
........................................................................

 iter      E             dE          RMSdq      gap      omega  full diag
   1    -54.3415672 -0.543416E+02  0.464E-01    0.17       0.0  T
   2    -53.5448811  0.796686E+00  0.260E+00    0.17       1.0  T
   3    -54.3141542 -0.769273E+00  0.638E-01    0.21       1.0  T
   4    -54.3334741 -0.193199E-01  0.515E-01    0.12       1.0  T
   5    -54.3206152  0.128589E-01  0.654E-01    0.13       1.0  T
   6    -54.3491147 -0.284996E-01  0.220E-01    0.15       1.0  T
   7    -54.3504331 -0.131838E-02  0.174E-01    0.14       1.0  T
   8    -54.3517114 -0.127826E-02  0.129E-01    0.14       1.0  T
   9    -54.3524750 -0.763667E-03  0.836E-02    0.13       1.0  T
  10    -54.3525916 -0.116575E-03  0.628E-02    0.13       1.0  T
  11    -54.3523489  0.242719E-03  0.749E-02    0.13       1.0  T
  12    -54.3527547 -0.405865E-03  0.339E-02    0.13       1.0  T
  13    -54.3527688 -0.140435E-04  0.296E-02    0.13       1.0  T
  14    -54.3528012 -0.324552E-04  0.185E-02    0.13       1.0  T
  15    -54.3528045 -0.330595E-05  0.168E-02    0.13       1.0  T
  16    -54.3528175 -0.129720E-04  0.112E-02    0.13       1.5  T
  17    -54.3528261 -0.858750E-05  0.741E-03    0.13       2.2  T
  18    -54.3528274 -0.131713E-05  0.565E-03    0.13       2.9  T
  19    -54.3528267  0.747121E-06  0.548E-03    0.13       3.0  T
  20    -54.3528278 -0.115053E-05  0.422E-03    0.13       4.0  T
  21    -54.3528289 -0.105759E-05  0.175E-03    0.13       9.5  T
  22    -54.3528290 -0.134739E-06  0.111E-03    0.13      15.0  T
  23    -54.3528290  0.361997E-07  0.111E-03    0.13      15.0  T
  24    -54.3528290 -0.522658E-07  0.713E-04    0.13      23.4  T
  25    -54.3528291 -0.167115E-07  0.606E-04    0.13      27.5  T
     SCC iter.                  ...        0 min,  0.076 sec
     gradient                   ...        0 min,  0.013 sec
 * total energy  :   -54.3100928 Eh     change        0.2123073E-01 Eh
   gradient norm :     0.0170245 Eh/α   predicted    -0.2616491E-02 (-112.32%)
   displ. norm   :     0.8110791 α      lambda       -0.1056299E-01
   maximum displ.:     0.3171666 α      in ANC's #31, #53, #44, ...

........................................................................
.............................. CYCLE   23 ..............................
........................................................................

 iter      E             dE          RMSdq      gap      omega  full diag
   1    -54.2272999 -0.542273E+02  0.100E+00    0.19       0.0  T
   2    -51.7220857  0.250521E+01  0.461E+00    0.06       1.0  T
   3    -54.0606522 -0.233857E+01  0.150E+00    0.29       1.0  T
   4    -54.0750885 -0.144362E-01  0.143E+00    0.08       1.0  T
   5    -54.1942556 -0.119167E+00  0.101E+00    0.15       1.0  T
   6    -54.2118948 -0.176392E-01  0.823E-01    0.24       1.0  T
   7    -54.1517262  0.601686E-01  0.108E+00    0.10       1.0  T
   8    -54.2542957 -0.102570E+00  0.367E-01    0.17       1.0  T
   9    -54.2569044 -0.260869E-02  0.359E-01    0.16       1.0  T
  10    -54.2626426 -0.573817E-02  0.213E-01    0.16       1.0  T
  11    -54.2606854  0.195720E-02  0.258E-01    0.17       1.0  T
  12    -54.2614056 -0.720200E-03  0.217E-01    0.17       1.0  T
  13    -54.2629063 -0.150071E-02  0.143E-01    0.17       1.0  T
  14    -54.2639646 -0.105832E-02  0.846E-02    0.17       1.0  T
  15    -54.2642451 -0.280485E-03  0.648E-02    0.17       1.0  T
  16    -54.2643652 -0.120068E-03  0.476E-02    0.17       1.0  T
  17    -54.2643358  0.293968E-04  0.483E-02    0.17       1.0  T
  18    -54.2643703 -0.344954E-04  0.389E-02    0.17       1.0  T
  19    -54.2644418 -0.715338E-04  0.201E-02    0.17       1.0  T
  20    -54.2644534 -0.115934E-04  0.128E-02    0.17       1.3  T
  21    -54.2644588 -0.540555E-05  0.998E-03    0.17       1.7  T
  22    -54.2644611 -0.230249E-05  0.808E-03    0.17       2.1  T
  23    -54.2644622 -0.108505E-05  0.543E-03    0.17       3.1  T
  24    -54.2644634 -0.117724E-05  0.326E-03    0.17       5.1  T
  25    -54.2644638 -0.367857E-06  0.280E-03    0.17       5.9  T
  26    -54.2644637  0.562650E-07  0.247E-03    0.17       6.7  T
  27    -54.2644638 -0.108041E-06  0.163E-03    0.17      10.2  T
  28    -54.2644639 -0.707751E-07  0.110E-03    0.17      15.1  T
  29    -54.2644639  0.119677E-07  0.106E-03    0.17      15.7  T
  30    -54.2644639 -0.182070E-07  0.587E-04    0.17      28.4  T
  31    -54.2644639 -0.149161E-07  0.394E-04    0.17      42.3  T
     SCC iter.                  ...        0 min,  0.106 sec
     gradient                   ...        0 min,  0.018 sec
 * total energy  :   -54.2239581 Eh     change        0.8613474E-01 Eh
   gradient norm :     0.0127806 Eh/α   predicted    -0.8755926E-02 (-110.17%)
   displ. norm   :     0.7611400 α      lambda       -0.7140981E-02
   maximum displ.:     0.3058691 α      in ANC's #31, #53, #41, ...

........................................................................
.............................. CYCLE   24 ..............................
........................................................................

 iter      E             dE          RMSdq      gap      omega  full diag
   1    -54.1143635 -0.541144E+02  0.123E+00    0.09       0.0  T
   2    -52.5967246  0.151764E+01  0.406E+00    0.12       1.0  T
   3    -53.6221504 -0.102543E+01  0.246E+00    0.04       1.0  T
   4    -54.0767251 -0.454575E+00  0.111E+00    0.20       1.0  T
   5    -53.9225941  0.154131E+00  0.181E+00    0.05       1.0  T
   6    -54.0421134 -0.119519E+00  0.108E+00    0.08       1.0  T
   7    -54.0555010 -0.133876E-01  0.102E+00    0.18       1.0  T
   8    -54.1107998 -0.552988E-01  0.753E-01    0.18       1.0  T
   9    -54.1474516 -0.366518E-01  0.424E-01    0.17       1.0  T
  10    -54.1408021  0.664953E-02  0.486E-01    0.15       1.0  T
  11    -54.1549653 -0.141633E-01  0.278E-01    0.16       1.0  T
  12    -54.1576812 -0.271593E-02  0.189E-01    0.15       1.0  T
  13    -54.1555177  0.216355E-02  0.234E-01    0.14       1.0  T
  14    -54.1583334 -0.281572E-02  0.143E-01    0.14       1.0  T
  15    -54.1582473  0.860799E-04  0.133E-01    0.15       1.0  T
  16    -54.1593795 -0.113219E-02  0.756E-02    0.14       1.0  T
  17    -54.1593529  0.266339E-04  0.650E-02    0.14       1.0  T
  18    -54.1596067 -0.253797E-03  0.413E-02    0.14       1.0  T
  19    -54.1596703 -0.635883E-04  0.320E-02    0.14       1.0  T
  20    -54.1596380  0.323160E-04  0.345E-02    0.14       1.0  T
  21    -54.1596832 -0.452755E-04  0.272E-02    0.14       1.0  T
  22    -54.1597162 -0.329787E-04  0.170E-02    0.14       1.0  T
  23    -54.1597351 -0.188465E-04  0.900E-03    0.14       1.9  T
  24    -54.1597388 -0.377985E-05  0.537E-03    0.14       3.1  T
  25    -54.1597395 -0.672480E-06  0.343E-03    0.14       4.9  T
  26    -54.1597394  0.791233E-07  0.236E-03    0.14       7.1  T
  27    -54.1597396 -0.187776E-06  0.216E-03    0.14       7.7  T
  28    -54.1597398 -0.192307E-06  0.142E-03    0.14      11.7  T
  29    -54.1597399 -0.391378E-07  0.104E-03    0.14      16.1  T
  30    -54.1597399 -0.199912E-07  0.767E-04    0.14      21.7  T
  31    -54.1597399 -0.881972E-08  0.557E-04    0.14      29.9  T
     SCC iter.                  ...        0 min,  0.215 sec
     gradient                   ...        0 min,  0.069 sec
 * total energy  :   -54.1192827 Eh     change        0.1046754E+00 Eh
   gradient norm :     0.0140024 Eh/α   predicted    -0.5639023E-02 (-105.39%)
   displ. norm   :     0.8606356 α      lambda       -0.7937118E-02
   maximum displ.:     0.3089147 α      in ANC's #31, #53, #41, ...

........................................................................
.............................. CYCLE   25 ..............................
........................................................................

 iter      E             dE          RMSdq      gap      omega  full diag
   1    -53.8532769 -0.538533E+02  0.220E+00    0.05       0.0  T
   2    -48.8461230  0.500715E+01  0.734E+00    0.06       1.0  T
   3    -53.0731516 -0.422703E+01  0.318E+00    0.04       1.0  T
   4    -51.4981651  0.157499E+01  0.490E+00    0.02       1.0  T
   5    -53.4127610 -0.191460E+01  0.249E+00    0.15       1.0  T
   6    -53.1668195  0.245942E+00  0.289E+00    0.05       1.0  T
   7    -53.5325911 -0.365772E+00  0.216E+00    0.10       1.0  T
   8    -53.8527961 -0.320205E+00  0.138E+00    0.12       1.0  T
   9    -53.9430053 -0.902092E-01  0.854E-01    0.04       1.0  T
  10    -53.9498581 -0.685275E-02  0.945E-01    0.11       1.0  T
  11    -53.9806552 -0.307971E-01  0.785E-01    0.11       1.0  T
  12    -54.0064366 -0.257814E-01  0.534E-01    0.08       1.0  T
  13    -53.9955062  0.109304E-01  0.532E-01    0.11       1.0  T
  14    -54.0143547 -0.188486E-01  0.375E-01    0.10       1.0  T
  15    -54.0181173 -0.376262E-02  0.359E-01    0.08       1.0  T
  16    -54.0187408 -0.623473E-03  0.344E-01    0.09       1.0  T
  17    -54.0187976 -0.567756E-04  0.326E-01    0.09       1.0  T
  18    -54.0230359 -0.423827E-02  0.189E-01    0.08       1.0  T
  19    -54.0227268  0.309102E-03  0.157E-01    0.08       1.0  T
  20    -54.0238206 -0.109383E-02  0.813E-02    0.08       1.0  T
  21    -54.0240681 -0.247550E-03  0.706E-02    0.08       1.0  T
  22    -54.0236512  0.416926E-03  0.113E-01    0.08       1.0  T
  23    -54.0236455  0.571345E-05  0.107E-01    0.08       1.0  T
  24    -54.0240979 -0.452435E-03  0.575E-02    0.08       1.0  T
  25    -54.0240614  0.365693E-04  0.506E-02    0.08       1.0  T
  26    -54.0241844 -0.123032E-03  0.296E-02    0.08       1.0  T
  27    -54.0242238 -0.394195E-04  0.132E-02    0.08       1.3  T
  28    -54.0242262 -0.236054E-05  0.889E-03    0.08       1.9  T
  29    -54.0242318 -0.564186E-05  0.530E-03    0.08       3.1  T
  30    -54.0242288  0.306800E-05  0.941E-03    0.08       1.8  T
  31    -54.0242316 -0.287362E-05  0.409E-03    0.08       4.1  T
  32    -54.0242322 -0.610625E-06  0.237E-03    0.08       7.0  T
  33    -54.0242323 -0.105519E-06  0.217E-03    0.08       7.7  T
  34    -54.0242325 -0.118006E-06  0.115E-03    0.08      14.5  T
  35    -54.0242325 -0.744699E-07  0.598E-04    0.08      27.9  T
  36    -54.0242325  0.183921E-07  0.885E-04    0.08      18.8  T
     SCC iter.                  ...        0 min,  0.267 sec
     gradient                   ...        0 min,  0.086 sec
 * total energy  :   -53.9826451 Eh     change        0.1366376E+00 Eh
   gradient norm :     0.0180272 Eh/α   predicted    -0.6908072E-02 (-105.06%)
   displ. norm   :     0.8414676 α      lambda       -0.8829937E-02
   maximum displ.:     0.2812179 α      in ANC's #38, #53, #41, ...

........................................................................
.............................. CYCLE   26 ..............................
........................................................................

 iter      E             dE          RMSdq      gap      omega  full diag
   1    -53.6691786 -0.536692E+02  0.232E+00    0.07       0.0  T
   2    -41.6903451  0.119788E+02  0.862E+00    0.15       1.0  T
   3    -51.0512491 -0.936090E+01  0.581E+00    0.16       1.0  T
   4    -52.9980331 -0.194678E+01  0.330E+00    0.05       1.0  T
   5    -52.4772277  0.520805E+00  0.403E+00    0.05       1.0  T
   6    -52.7910040 -0.313776E+00  0.382E+00    0.06       1.0  T
   7    -53.4950623 -0.704058E+00  0.215E+00    0.09       1.0  T
   8    -53.6333596 -0.138297E+00  0.183E+00    0.03       1.0  T
   9    -53.7673178 -0.133958E+00  0.130E+00    0.08       1.0  T
  10    -53.8420431 -0.747253E-01  0.965E-01    0.03       1.0  T
  11    -53.8188218  0.232213E-01  0.102E+00    0.06       1.0  T
  12    -53.8708320 -0.520102E-01  0.680E-01    0.04       1.0  T
  13    -53.8449974  0.258346E-01  0.740E-01    0.01       1.0  T
  14    -53.8835309 -0.385335E-01  0.492E-01    0.04       1.0  T
  15    -53.8788234  0.470751E-02  0.522E-01    0.03       1.0  T
  16    -53.8938273 -0.150039E-01  0.354E-01    0.03       1.0  T
  17    -53.8931544  0.672933E-03  0.338E-01    0.03       1.0  T
  18    -53.8929860  0.168396E-03  0.312E-01    0.03       1.0  T
  19    -53.8981828 -0.519685E-02  0.240E-01    0.03       1.0  T
  20    -53.8954467  0.273611E-02  0.307E-01    0.03       1.0  T
  21    -53.8954513 -0.461308E-05  0.299E-01    0.03       1.0  T
  22    -53.8960375 -0.586184E-03  0.268E-01    0.03       1.0  T
  23    -53.8991540 -0.311646E-02  0.155E-01    0.03       1.0  T
  24    -53.8999319 -0.777898E-03  0.120E-01    0.02       1.0  T
  25    -53.9002452 -0.313373E-03  0.977E-02    0.02       1.0  T
  26    -53.9003195 -0.743087E-04  0.844E-02    0.02       1.0  T
  27    -53.9000401  0.279467E-03  0.961E-02    0.02       1.0  T
  28    -53.9001484 -0.108348E-03  0.809E-02    0.02       1.0  T
  29    -53.9004753 -0.326865E-03  0.389E-02    0.02       1.0  T
  30    -53.9005677 -0.924434E-04  0.171E-02    0.02       1.0  T
  31    -53.9005814 -0.137063E-04  0.113E-02    0.02       1.5  T
  32    -53.9005851 -0.365430E-05  0.806E-03    0.02       2.1  T
  33    -53.9005793  0.581872E-05  0.109E-02    0.02       1.5  T
  34    -53.9005812 -0.191001E-05  0.947E-03    0.02       1.8  T
  35    -53.9005839 -0.274613E-05  0.736E-03    0.02       2.3  T
  36    -53.9005880 -0.408321E-05  0.252E-03    0.02       6.6  T
  37    -53.9005878  0.227564E-06  0.248E-03    0.02       6.7  T
  38    -53.9005877  0.540773E-07  0.274E-03    0.02       6.1  T
  39    -53.9005878 -0.565211E-07  0.244E-03    0.02       6.8  T
  40    -53.9005883 -0.494289E-06  0.427E-04    0.02      39.0  T
  41    -53.9005882  0.728249E-07  0.107E-03    0.02      15.5  T
  42    -53.9005883 -0.745394E-07  0.288E-04    0.02      57.9  T
     SCC iter.                  ...        0 min,  0.382 sec
     gradient                   ...        0 min,  0.066 sec
 * total energy  :   -53.8557436 Eh     change        0.1269014E+00 Eh
   gradient norm :     0.0248536 Eh/α   predicted    -0.7541070E-02 (-105.94%)
   displ. norm   :     0.6514455 α      lambda       -0.9802894E-02
   maximum displ.:     0.2345106 α      in ANC's #38, #32, #42, ...

........................................................................
.............................. CYCLE   27 ..............................
........................................................................

 iter      E             dE          RMSdq      gap      omega  full diag
   1    -53.7275546 -0.537276E+02  0.158E+00    0.02       0.0  T
   2    -45.4628842  0.826467E+01  0.798E+00    0.15       1.0  T
   3    -52.5214119 -0.705853E+01  0.452E+00    0.06       1.0  T
   4    -53.6438732 -0.112246E+01  0.173E+00    0.03       1.0  T
   5    -52.5573373  0.108654E+01  0.384E+00    0.07       1.0  T
   6    -51.7470306  0.810307E+00  0.423E+00    0.05       1.0  T
   7    -53.5948997 -0.184787E+01  0.165E+00    0.09       1.0  T
   8    -53.3711562  0.223744E+00  0.231E+00    0.04       1.0  T
   9    -53.7470382 -0.375882E+00  0.119E+00    0.04       1.0  T
  10    -53.7419151  0.512310E-02  0.123E+00    0.03       1.0  T
  11    -53.8263837 -0.844686E-01  0.666E-01    0.05       1.0  T
  12    -53.8353298 -0.894610E-02  0.584E-01    0.04       1.0  T
  13    -53.8224436  0.128862E-01  0.620E-01    0.04       1.0  T
  14    -53.8344193 -0.119757E-01  0.518E-01    0.05       1.0  T
  15    -53.8469202 -0.125009E-01  0.386E-01    0.05       1.0  T
  16    -53.8468614  0.587535E-04  0.372E-01    0.05       1.0  T
  17    -53.8448973  0.196410E-02  0.388E-01    0.05       1.0  T
  18    -53.8457085 -0.811192E-03  0.332E-01    0.05       1.0  T
  19    -53.8481211 -0.241253E-02  0.276E-01    0.05       1.0  T
  20    -53.8491805 -0.105942E-02  0.242E-01    0.05       1.0  T
  21    -53.8486891  0.491374E-03  0.224E-01    0.05       1.0  T
  22    -53.8516253 -0.293622E-02  0.124E-01    0.05       1.0  T
  23    -53.8521392 -0.513917E-03  0.846E-02    0.04       1.0  T
  24    -53.8523086 -0.169405E-03  0.669E-02    0.04       1.0  T
  25    -53.8524094 -0.100769E-03  0.497E-02    0.04       1.0  T
  26    -53.8524190 -0.958413E-05  0.400E-02    0.04       1.0  T
  27    -53.8524147  0.428854E-05  0.329E-02    0.04       1.0  T
  28    -53.8524516 -0.368667E-04  0.234E-02    0.04       1.0  T
  29    -53.8524720 -0.204070E-04  0.142E-02    0.04       1.2  T
  30    -53.8524748 -0.281810E-05  0.119E-02    0.04       1.4  T
  31    -53.8524793 -0.446323E-05  0.733E-03    0.04       2.3  T
  32    -53.8524802 -0.932691E-06  0.489E-03    0.04       3.4  T
  33    -53.8524806 -0.450844E-06  0.372E-03    0.04       4.5  T
  34    -53.8524809 -0.276090E-06  0.275E-03    0.04       6.1  T
  35    -53.8524811 -0.151586E-06  0.188E-03    0.04       8.9  T
  36    -53.8524811 -0.243865E-07  0.137E-03    0.04      12.2  T
  37    -53.8524812 -0.651430E-07  0.754E-04    0.04      22.1  T
  38    -53.8524812 -0.145908E-07  0.470E-04    0.04      35.5  T
     SCC iter.                  ...        0 min,  0.289 sec
     gradient                   ...        0 min,  0.075 sec
 * total energy  :   -53.8057787 Eh     change        0.4996492E-01 Eh
   gradient norm :     0.0212291 Eh/α   predicted    -0.6981545E-02 (-113.97%)
   displ. norm   :     0.5927343 α      lambda       -0.8901698E-02
   maximum displ.:     0.2530965 α      in ANC's #42, #32, #52, ...

........................................................................
.............................. CYCLE   28 ..............................
........................................................................

 iter      E             dE          RMSdq      gap      omega  full diag
   1    -53.7666678 -0.537667E+02  0.120E+00    0.02       0.0  T
   2    -46.9247160  0.684195E+01  0.697E+00    0.21       1.0  T
   3    -52.8323427 -0.590763E+01  0.361E+00    0.05       1.0  T
   4    -53.5140172 -0.681674E+00  0.205E+00    0.05       1.0  T
   5    -52.8535392  0.660478E+00  0.355E+00    0.06       1.0  T
   6    -53.7020992 -0.848560E+00  0.140E+00    0.05       1.0  T
[...]
C12-C5-N4=126.56               C12-C5-C6=119.60               C5-C6-Zr1= 68.90               C7-C6-Zr1= 50.24               
C7-C6-C5=104.25                H22-C6-Zr1=156.69              H22-C6-C5=111.58               H22-C6-C7=109.93               
H23-C6-Zr1= 91.96              H23-C6-C5=109.72               H23-C6-C7=112.47               H23-C6-H22=108.87              
C6-C7-Zr1= 98.58               C8-C7-Zr1= 73.37               C8-C7-C6=125.66                C11-C7-Zr1= 83.12              
C11-C7-C6=127.15               C11-C7-C8=105.60               C7-C8-Zr1= 71.74               C9-C8-Zr1= 82.84               
C9-C8-C7=109.03                H24-C8-Zr1=105.10              H24-C8-C7=126.75               H24-C8-C9=123.56               
C8-C9-Zr1= 62.20               C10-C9-Zr1= 79.85              C10-C9-C8=110.78               H25-C9-Zr1=121.93              
H25-C9-C8=123.47               H25-C9-C10=125.68              C9-C10-Zr1= 69.98              C11-C10-Zr1= 69.27             
C11-C10-C9=105.20              H26-C10-Zr1=130.41             H26-C10-C9=127.87              H26-C10-C11=126.54             

 selected dihedral angles (degree)
 ---------------------------------
C20-Cl2-Zr1-Cl3=116.14        C20-Cl2-Zr1-N4=118.80         C20-Cl2-Zr1-C5=148.32         C20-Cl2-Zr1-C6=168.54         
C20-Cl2-Zr1-C7=198.68         C20-Cl2-Zr1-C8=199.77         C20-Cl2-Zr1-C9=236.93         C20-Cl2-Zr1-C10=254.03        
C20-Cl2-Zr1-C11=235.46        C20-Cl2-Zr1-C15=325.56        C20-Cl2-Zr1-C16=321.00        C20-Cl2-Zr1-C17=341.12        
C20-Cl2-Zr1-C18= 15.88        C20-Cl2-Zr1-C19= 26.63        C20-Cl2-Zr1-C21=330.44        C5-N4-Zr1-Cl2= 36.28          
C5-N4-Zr1-Cl3= 38.96          C5-N4-Zr1-C6=343.13           C5-N4-Zr1-C7=314.43           C5-N4-Zr1-C8=317.61           
C5-N4-Zr1-C9=281.61           C5-N4-Zr1-C10=261.45          C5-N4-Zr1-C11=277.05          C5-N4-Zr1-C15=197.02          
C5-N4-Zr1-C16=196.22          C5-N4-Zr1-C17=175.53          C5-N4-Zr1-C18=141.68          C5-N4-Zr1-C19=127.27          
C5-N4-Zr1-C20=151.00          C5-N4-Zr1-C21=183.53          C15-N4-Zr1-Cl2=199.26         C15-N4-Zr1-Cl3=201.94         
C15-N4-Zr1-C5=162.98          C15-N4-Zr1-C6=146.11          C15-N4-Zr1-C7=117.41          C15-N4-Zr1-C8=120.59          
C15-N4-Zr1-C9= 84.59          C15-N4-Zr1-C10= 64.43         C15-N4-Zr1-C11= 80.03         C15-N4-Zr1-C16=359.20         
C15-N4-Zr1-C17=338.51         C15-N4-Zr1-C18=304.66         C15-N4-Zr1-C19=290.25         C15-N4-Zr1-C20=313.98         
C15-N4-Zr1-C21=346.51         N4-C5-Zr1-Cl2=187.72          N4-C5-Zr1-Cl3=224.30          N4-C5-Zr1-C6=152.48           
N4-C5-Zr1-C7=124.78           N4-C5-Zr1-C8=140.11           N4-C5-Zr1-C9=114.32           N4-C5-Zr1-C10= 85.50          
N4-C5-Zr1-C11= 86.48          N4-C5-Zr1-C15=  8.77          N4-C5-Zr1-C16= 13.11          N4-C5-Zr1-C17=355.65          
N4-C5-Zr1-C18=324.21          N4-C5-Zr1-C19=300.43          N4-C5-Zr1-C20=314.48          N4-C5-Zr1-C21=  4.77          
C6-C5-Zr1-Cl2= 35.24          C6-C5-Zr1-Cl3= 71.82          C6-C5-Zr1-N4=207.52           C6-C5-Zr1-C7=332.30           
C6-C5-Zr1-C8=347.63           C6-C5-Zr1-C9=321.84           C6-C5-Zr1-C10=293.02          C6-C5-Zr1-C11=294.00          
C6-C5-Zr1-C15=216.29          C6-C5-Zr1-C16=220.63          C6-C5-Zr1-C17=203.17          C6-C5-Zr1-C18=171.73          
C6-C5-Zr1-C19=147.95          C6-C5-Zr1-C20=162.00          C6-C5-Zr1-C21=212.29          C12-C5-Zr1-Cl2=199.14         
C12-C5-Zr1-Cl3=235.72         C12-C5-Zr1-N4= 11.43          C12-C5-Zr1-C6=163.91          C12-C5-Zr1-C7=136.21          
C12-C5-Zr1-C8=151.54          C12-C5-Zr1-C9=125.75          C12-C5-Zr1-C10= 96.93         C12-C5-Zr1-C11= 97.91         
C12-C5-Zr1-C15= 20.20         C12-C5-Zr1-C16= 24.54         C12-C5-Zr1-C17=  7.07         C12-C5-Zr1-C18=335.64         
C12-C5-Zr1-C19=311.86         C12-C5-Zr1-C20=325.90         C12-C5-Zr1-C21= 16.20         Zr1-C5-N4-C15=194.00          
C6-C5-N4-Zr1= 28.84           C6-C5-N4-C15=222.85           C12-C5-N4-Zr1=184.93          C12-C5-N4-C15= 18.93          
C5-C6-Zr1-Cl2=200.68          C5-C6-Zr1-Cl3=269.57          C5-C6-Zr1-N4= 14.30           C5-C6-Zr1-C7=131.62           
C5-C6-Zr1-C8=165.35           C5-C6-Zr1-C9=145.13           C5-C6-Zr1-C10=114.93          C5-C6-Zr1-C11= 98.61          
C5-C6-Zr1-C15= 27.32          C5-C6-Zr1-C16= 40.60          C5-C6-Zr1-C17= 29.44          C5-C6-Zr1-C18=350.20          
C5-C6-Zr1-C19=312.61          C5-C6-Zr1-C20=277.32          C5-C6-Zr1-C21= 70.34          C7-C6-Zr1-Cl2= 69.06          
C7-C6-Zr1-Cl3=137.95          C7-C6-Zr1-N4=242.68           C7-C6-Zr1-C5=228.38           C7-C6-Zr1-C8= 33.73           
C7-C6-Zr1-C9= 13.51           C7-C6-Zr1-C10=343.31          C7-C6-Zr1-C11=326.99          C7-C6-Zr1-C15=255.70          
C7-C6-Zr1-C16=268.98          C7-C6-Zr1-C17=257.82          C7-C6-Zr1-C18=218.58          C7-C6-Zr1-C19=180.99          
C7-C6-Zr1-C20=145.70          C7-C6-Zr1-C21=298.72          H22-C6-Zr1-Cl2=104.90         H22-C6-Zr1-Cl3=173.79         
H22-C6-Zr1-N4=278.52          H22-C6-Zr1-C5=264.22          H22-C6-Zr1-C7= 35.84          H22-C6-Zr1-C8= 69.56          
H22-C6-Zr1-C9= 49.35          H22-C6-Zr1-C10= 19.15         H22-C6-Zr1-C11=  2.83         H22-C6-Zr1-C15=291.54         
H22-C6-Zr1-C16=304.82         H22-C6-Zr1-C17=293.66         H22-C6-Zr1-C18=254.42         H22-C6-Zr1-C19=216.83         
H22-C6-Zr1-C20=181.54         H22-C6-Zr1-C21=334.56         H23-C6-Zr1-Cl2=311.09         H23-C6-Zr1-Cl3= 19.98         
H23-C6-Zr1-N4=124.71          H23-C6-Zr1-C5=110.41          H23-C6-Zr1-C7=242.03          H23-C6-Zr1-C8=275.76          
H23-C6-Zr1-C9=255.55          H23-C6-Zr1-C10=225.34         H23-C6-Zr1-C11=209.02         H23-C6-Zr1-C15=137.73         
H23-C6-Zr1-C16=151.01         H23-C6-Zr1-C17=139.85         H23-C6-Zr1-C18=100.61         H23-C6-Zr1-C19= 63.02         
H23-C6-Zr1-C20= 27.73         H23-C6-Zr1-C21=180.75         Zr1-C6-C5-N4=344.38           Zr1-C6-C5-C12=186.37          
C7-C6-C5-Zr1= 36.36           C7-C6-C5-N4= 20.74            C7-C6-C5-C12=222.74           H22-C6-C5-Zr1=154.95          
H22-C6-C5-N4=139.33           H22-C6-C5-C12=341.33          H23-C6-C5-Zr1=275.71          H23-C6-C5-N4=260.08           
H23-C6-C5-C12=102.08          C6-C7-Zr1-Cl2=237.03          C6-C7-Zr1-Cl3=325.02          C6-C7-Zr1-N4= 49.94           
C6-C7-Zr1-C5= 27.72           C6-C7-Zr1-C8=235.23           C6-C7-Zr1-C9=196.17           C6-C7-Zr1-C10=160.13          
C6-C7-Zr1-C11=126.65          C6-C7-Zr1-C15= 70.34          C6-C7-Zr1-C16= 95.36          C6-C7-Zr1-C17=102.86          
C6-C7-Zr1-C18= 61.39          C6-C7-Zr1-C19=  3.82          C6-C7-Zr1-C20=194.16          C6-C7-Zr1-C21=151.46          
C8-C7-Zr1-Cl2=  1.80          C8-C7-Zr1-Cl3= 89.79          C8-C7-Zr1-N4=174.71           C8-C7-Zr1-C5=152.49           
C8-C7-Zr1-C6=124.77           C8-C7-Zr1-C9=320.94           C8-C7-Zr1-C10=284.90          C8-C7-Zr1-C11=251.42          
C8-C7-Zr1-C15=195.10          C8-C7-Zr1-C16=220.13          C8-C7-Zr1-C17=227.63          C8-C7-Zr1-C18=186.16          
C8-C7-Zr1-C19=128.59          C8-C7-Zr1-C20=318.92          C8-C7-Zr1-C21=276.23          C11-C7-Zr1-Cl2=110.38         
C11-C7-Zr1-Cl3=198.37         C11-C7-Zr1-N4=283.29          C11-C7-Zr1-C5=261.07          C11-C7-Zr1-C6=233.35          
C11-C7-Zr1-C8=108.58          C11-C7-Zr1-C9= 69.52          C11-C7-Zr1-C10= 33.48         C11-C7-Zr1-C15=303.69         
C11-C7-Zr1-C16=328.71         C11-C7-Zr1-C17=336.21         C11-C7-Zr1-C18=294.74         C11-C7-Zr1-C19=237.17         
C11-C7-Zr1-C20= 67.51         C11-C7-Zr1-C21= 24.81         Zr1-C7-C6-C5=313.98           Zr1-C7-C6-H22=194.27          
Zr1-C7-C6-H23= 72.78          C8-C7-C6-Zr1=284.36           C8-C7-C6-C5=238.34            C8-C7-C6-H22=118.63           
C8-C7-C6-H23=357.14           C11-C7-C6-Zr1= 87.84          C11-C7-C6-C5= 41.82           C11-C7-C6-H22=282.11          
C11-C7-C6-H23=160.62          C7-C8-Zr1-Cl2=181.84          C7-C8-Zr1-Cl3=273.95          C7-C8-Zr1-N4=354.67           
C7-C8-Zr1-C5=337.36           C7-C8-Zr1-C6=329.82           C7-C8-Zr1-C9=112.79           C7-C8-Zr1-C10= 81.03          
C7-C8-Zr1-C11= 41.77          C7-C8-Zr1-C15= 17.14          C7-C8-Zr1-C16= 51.13          C7-C8-Zr1-C17= 81.53          
C7-C8-Zr1-C18= 63.90          C7-C8-Zr1-C19=195.61          C7-C8-Zr1-C20=161.21          C7-C8-Zr1-C21=122.36          
C9-C8-Zr1-Cl2= 69.05          C9-C8-Zr1-Cl3=161.16          C9-C8-Zr1-N4=241.87           C9-C8-Zr1-C5=224.57           
C9-C8-Zr1-C6=217.03           C9-C8-Zr1-C7=247.21           C9-C8-Zr1-C10=328.23          C9-C8-Zr1-C11=288.97          
C9-C8-Zr1-C15=264.35          C9-C8-Zr1-C16=298.34          C9-C8-Zr1-C17=328.74          C9-C8-Zr1-C18=311.10          
C9-C8-Zr1-C19= 82.82          C9-C8-Zr1-C20= 48.41          C9-C8-Zr1-C21=  9.57          H24-C8-Zr1-Cl2=306.14         
H24-C8-Zr1-Cl3= 38.25         H24-C8-Zr1-N4=118.97          H24-C8-Zr1-C5=101.66          H24-C8-Zr1-C6= 94.13          
H24-C8-Zr1-C7=124.30          H24-C8-Zr1-C9=237.10          H24-C8-Zr1-C10=205.33         H24-C8-Zr1-C11=166.07         
H24-C8-Zr1-C15=141.45         H24-C8-Zr1-C16=175.44         H24-C8-Zr1-C17=205.83         H24-C8-Zr1-C18=188.20         
H24-C8-Zr1-C19=319.92         H24-C8-Zr1-C20=285.51         H24-C8-Zr1-C21=246.67         Zr1-C8-C7-C6= 88.70           
Zr1-C8-C7-C11=282.31          C9-C8-C7-Zr1= 75.37           C9-C8-C7-C6=164.07            C9-C8-C7-C11=357.68           
H24-C8-C7-Zr1=264.49          H24-C8-C7-C6=353.18           H24-C8-C7-C11=186.79          C8-C9-Zr1-Cl2=264.33          
C8-C9-Zr1-Cl3=338.88          C8-C9-Zr1-N4= 77.25           C8-C9-Zr1-C5= 49.37           C8-C9-Zr1-C6= 30.68           
C8-C9-Zr1-C7= 38.98           C8-C9-Zr1-C10=120.12          C8-C9-Zr1-C11= 82.64          C8-C9-Zr1-C15=102.91          
C8-C9-Zr1-C16=132.22          C8-C9-Zr1-C17=160.72          C8-C9-Zr1-C18=174.95          C8-C9-Zr1-C19=221.82          
C8-C9-Zr1-C20=218.17          C8-C9-Zr1-C21=188.19          C10-C9-Zr1-Cl2=144.21         C10-C9-Zr1-Cl3=218.76         
C10-C9-Zr1-N4=317.13          C10-C9-Zr1-C5=289.26          C10-C9-Zr1-C6=270.56          C10-C9-Zr1-C7=278.86          
C10-C9-Zr1-C8=239.88          C10-C9-Zr1-C11=322.52         C10-C9-Zr1-C15=342.79         C10-C9-Zr1-C16= 12.10         
C10-C9-Zr1-C17= 40.60         C10-C9-Zr1-C18= 54.83         C10-C9-Zr1-C19=101.70         C10-C9-Zr1-C20= 98.05         
C10-C9-Zr1-C21= 68.07         H25-C9-Zr1-Cl2= 18.29         H25-C9-Zr1-Cl3= 92.84         H25-C9-Zr1-N4=191.21          
H25-C9-Zr1-C5=163.34          H25-C9-Zr1-C6=144.64          H25-C9-Zr1-C7=152.94          H25-C9-Zr1-C8=113.96          
H25-C9-Zr1-C10=234.08         H25-C9-Zr1-C11=196.60         H25-C9-Zr1-C15=216.87         H25-C9-Zr1-C16=246.18         
H25-C9-Zr1-C17=274.68         H25-C9-Zr1-C18=288.91         H25-C9-Zr1-C19=335.78         H25-C9-Zr1-C20=332.13         
H25-C9-Zr1-C21=302.15         Zr1-C9-C8-C7=292.17           Zr1-C9-C8-H24=103.40          C10-C9-C8-Zr1= 65.60          
C10-C9-C8-C7=357.77           C10-C9-C8-H24=169.01          H25-C9-C8-Zr1=248.40          H25-C9-C8-C7=180.56           
H25-C9-C8-H24=351.80          C9-C10-Zr1-Cl2=328.77         C9-C10-Zr1-Cl3= 56.24         C9-C10-Zr1-N4=143.88          
C9-C10-Zr1-C5=117.57          C9-C10-Zr1-C6= 89.05          C9-C10-Zr1-C7= 78.90          C9-C10-Zr1-C8= 36.88          
C9-C10-Zr1-C11=115.86         C9-C10-Zr1-C15=164.56         C9-C10-Zr1-C16=192.10         C9-C10-Zr1-C17=217.18         
C9-C10-Zr1-C18=215.48         C9-C10-Zr1-C19=253.67         C9-C10-Zr1-C20=272.13         C9-C10-Zr1-C21=252.43         
C11-C10-Zr1-Cl2=212.91        C11-C10-Zr1-Cl3=300.38        C11-C10-Zr1-N4= 28.02         C11-C10-Zr1-C5=  1.71         
C11-C10-Zr1-C6=333.19         C11-C10-Zr1-C7=323.04         C11-C10-Zr1-C8=281.02         C11-C10-Zr1-C9=244.14         
C11-C10-Zr1-C15= 48.70        C11-C10-Zr1-C16= 76.24        C11-C10-Zr1-C17=101.32        C11-C10-Zr1-C18= 99.62        
C11-C10-Zr1-C19=137.81        C11-C10-Zr1-C20=156.27        C11-C10-Zr1-C21=136.57        H26-C10-Zr1-Cl2= 91.99        
H26-C10-Zr1-Cl3=179.46        H26-C10-Zr1-N4=267.10         H26-C10-Zr1-C5=240.79         H26-C10-Zr1-C6=212.27         
H26-C10-Zr1-C7=202.12         H26-C10-Zr1-C8=160.11         H26-C10-Zr1-C9=123.22         H26-C10-Zr1-C11=239.08        
H26-C10-Zr1-C15=287.78        H26-C10-Zr1-C16=315.32        H26-C10-Zr1-C17=340.40        H26-C10-Zr1-C18=338.70        
H26-C10-Zr1-C19= 16.89        H26-C10-Zr1-C20= 35.35        H26-C10-Zr1-C21= 15.65        Zr1-C10-C9-C8=305.08          
Zr1-C10-C9-H25=122.20         C11-C10-C9-Zr1= 60.70         C11-C10-C9-C8=  5.78          C11-C10-C9-H25=182.90         
H26-C10-C9-Zr1=233.80         H26-C10-C9-C8=178.87          H26-C10-C9-H25=356.00         

 CMA Distance (Angstroems)
 ---------------------------
R(CMA):  3.7254
           -------------------------------------------------
          |                Final Singlepoint                |
           -------------------------------------------------

          ...................................................
          :                      SETUP                      :
          :.................................................:
          :  # basis functions                 117          :
          :  # atomic orbitals                 114          :
          :  # shells                           60          :
          :  # electrons                       106          :
          :  max. iterations                   250          :
          :  Hamiltonian                  GFN2-xTB          :
          :  restarted?                      false          :
          :  GBSA solvation                  false          :
          :  PC potential                    false          :
          :  electronic temp.          300.0000000     K    :
          :  accuracy                    1.0000000          :
          :  -> integral cutoff          0.2500000E+02      :
          :  -> integral neglect         0.1000000E-07      :
          :  -> SCF convergence          0.1000000E-05 Eh   :
          :  -> wf. convergence          0.1000000E-03 e    :
          :  Broyden damping             0.4000000          :
          :  net charge                          0          :
          :  unpaired electrons                  0          :
          ...................................................

 iter      E             dE          RMSdq      gap      omega  full diag
   1    -54.2339915 -0.542340E+02  0.116E+01    0.15       0.0  T
   2    -48.7782722  0.545572E+01  0.117E+01    0.19       1.0  T
   3    -58.1314487 -0.935318E+01  0.611E+00    2.07       1.0  T
   4    -58.4724956 -0.341047E+00  0.404E+00    1.54       1.0  T
   5    -58.4781343 -0.563864E-02  0.190E+00    0.31       1.0  T
   6    -58.5291661 -0.510318E-01  0.136E+00    0.33       1.0  T
   7    -58.5357097 -0.654356E-02  0.838E-01    0.19       1.0  T
   8    -58.5504667 -0.147570E-01  0.699E-01    0.61       1.0  T
   9    -58.5643787 -0.139120E-01  0.382E-01    0.39       1.0  T
  10    -58.5672836 -0.290493E-02  0.267E-01    0.33       1.0  T
  11    -58.5681633 -0.879669E-03  0.173E-01    0.28       1.0  T
  12    -58.5682766 -0.113301E-03  0.958E-02    0.27       1.0  T
  13    -58.5682937 -0.171605E-04  0.687E-02    0.29       1.0  T
  14    -58.5683590 -0.652742E-04  0.409E-02    0.28       1.0  T
  15    -58.5683857 -0.267060E-04  0.217E-02    0.28       1.0  T
  16    -58.5683989 -0.131780E-04  0.142E-02    0.28       1.2  T
  17    -58.5683982  0.654265E-06  0.111E-02    0.28       1.5  T
  18    -58.5684013 -0.304865E-05  0.469E-03    0.28       3.6  T
  19    -58.5684013 -0.974526E-08  0.305E-03    0.28       5.5  T
  20    -58.5684015 -0.197781E-06  0.117E-03    0.28      14.3  T
  21    -58.5684015  0.211045E-07  0.993E-04    0.28      16.8  T
  22    -58.5684015 -0.369693E-07  0.330E-04    0.28      50.6  T

   *** convergence criteria satisfied after 22 iterations ***

         #    Occupation            Energy/Eh            Energy/eV
      -------------------------------------------------------------
         1        2.0000           -1.0990695             -29.9072
       ...           ...                  ...                  ...
        47        2.0000           -0.4041877             -10.9985
        48        2.0000           -0.3985806             -10.8459
        49        2.0000           -0.3884579             -10.5705
        50        2.0000           -0.3774722             -10.2715
        51        2.0000           -0.3478944              -9.4667
        52        2.0000           -0.3328295              -9.0568
        53        1.9913           -0.3142928              -8.5523 (HOMO)
        54        0.0087           -0.3039684              -8.2714 (LUMO)
        55                         -0.2586437              -7.0381
        56                         -0.2429596              -6.6113
        57                         -0.2346232              -6.3844
        58                         -0.2229548              -6.0669
       ...                                ...                  ...
       114                          4.1779290             113.6872
      -------------------------------------------------------------
                  HL-Gap            0.0103244 Eh            0.2809 eV
             Fermi-level           -0.3091306 Eh           -8.4119 eV

 SCC (total)                   0 d,  0 h,  0 min,  0.208 sec
 SCC setup                      ...        0 min,  0.000 sec (  0.132%)
 Dispersion                     ...        0 min,  0.001 sec (  0.249%)
 classical contributions        ...        0 min,  0.000 sec (  0.046%)
 integral evaluation            ...        0 min,  0.007 sec (  3.501%)
 iterations                     ...        0 min,  0.147 sec ( 70.572%)
 molecular gradient             ...        0 min,  0.052 sec ( 25.138%)
 printout                       ...        0 min,  0.001 sec (  0.344%)

         :::::::::::::::::::::::::::::::::::::::::::::::::::::
         ::                     SUMMARY                     ::
         :::::::::::::::::::::::::::::::::::::::::::::::::::::
         :: total energy             -57.464941636927 Eh    ::
         :: gradient norm              0.615561840794 Eh/a0 ::
         :: HOMO-LUMO gap              0.280941119414 eV    ::
         ::.................................................::
         :: SCC energy               -58.567179287819 Eh    ::
         :: -> isotropic ES            0.044985809564 Eh    ::
         :: -> anisotropic ES         -0.000282004619 Eh    ::
         :: -> anisotropic XC          0.016027694190 Eh    ::
         :: -> dispersion             -0.056268156935 Eh    ::
         :: repulsion energy           1.102237650892 Eh    ::
         :: add. restraining           0.000000000000 Eh    ::
         :: total charge               0.000000000029 e     ::
         :::::::::::::::::::::::::::::::::::::::::::::::::::::


last geometry written to: xtblast.xyz

########################################################################
[ERROR] Program stopped due to fatal error
-10- Geometry optimization failed
-9- xtb_geoopt: Trying to recover from failed geometry optimization
-8- xtb_geoopt: Geometry optimization did not converge
-7- optimizer_ancopt: Could not relax/optimize structure
-6- optimizer_relax: SCF not converged, aborting...
-5- xtb_calculator_singlepoint: Electronic structure method terminated
-4- scf: Self consistent charge iterator terminated
-3- scc_core: Diagonalization of Hamiltonian failed
-2- mctc_lapack_sygvd: Failed to solve eigenvalue problem
-1- mctc_lapack_potrf: Factorisation of matrix failed
########################################################################
