      -----------------------------------------------------------      
     |                   =====================                   |     
     |                           x T B                           |     
     |                   =====================                   |     
     |                         S. Grimme                         |     
     |          Mulliken Center for Theoretical Chemistry        |     
     |                    University of Bonn                     |     
      -----------------------------------------------------------      

   * xtb version 6.7.1 (edcfbbe) compiled by 'VssAdministrator@runnervmowedg' on 2025-09-04

   xtb is free software: you can redistribute it and/or modify it under
   the terms of the GNU Lesser General Public License as published by
   the Free Software Foundation, either version 3 of the License, or
   (at your option) any later version.
   
   xtb is distributed in the hope that it will be useful,
   but WITHOUT ANY WARRANTY; without even the implied warranty of
   MERCHANTABILITY or FITNESS FOR A PARTICULAR PURPOSE.  See the
   GNU Lesser General Public License for more details.
   
   Cite this work as:
   * C. Bannwarth, E. Caldeweyher, S. Ehlert, A. Hansen, P. Pracht,
     J. Seibert, S. Spicher, S. Grimme, WIREs Comput. Mol. Sci., 2020, 11,
     e01493. DOI: 10.1002/wcms.1493
   
   for GFN2-xTB:
   * C. Bannwarth, S. Ehlert and S. Grimme., J. Chem. Theory Comput., 2019,
     15, 1652-1671. DOI: 10.1021/acs.jctc.8b01176
   for GFN1-xTB:
   * S. Grimme, C. Bannwarth, P. Shushkov, J. Chem. Theory Comput., 2017,
     13, 1989-2009. DOI: 10.1021/acs.jctc.7b00118
   for GFN0-xTB:
   * P. Pracht, E. Caldeweyher, S. Ehlert, S. Grimme, ChemRxiv, 2019, preprint.
     DOI: 10.26434/chemrxiv.8326202.v1
   for GFN-FF:
   * S. Spicher and S. Grimme, Angew. Chem. Int. Ed., 2020, 59, 15665-15673.
     DOI: 10.1002/anie.202004239
   
   for ALPB and GBSA implicit solvation:
   * S. Ehlert, M. Stahn, S. Spicher, S. Grimme, J. Chem. Theory Comput.,
     2021, 17, 4250-4261. DOI: 10.1021/acs.jctc.1c00471
   
   for ddCOSMO and CPCM-X implicit solvation:
   * M. Stahn, S. Ehlert, S. Grimme, J. Phys. Chem. A,
     2023, XX, XXXX-XXXX. DOI: 10.1021/acs.jpca.3c04382
   
   for DFT-D4:
   * E. Caldeweyher, C. Bannwarth and S. Grimme, J. Chem. Phys., 2017,
     147, 034112. DOI: 10.1063/1.4993215
   * E. Caldeweyher, S. Ehlert, A. Hansen, H. Neugebauer, S. Spicher,
     C. Bannwarth and S. Grimme, J. Chem. Phys., 2019, 150, 154122.
     DOI: 10.1063/1.5090222
   * E. Caldeweyher, J.-M. Mewes, S. Ehlert and S. Grimme, Phys. Chem. Chem. Phys.
     2020, 22, 8499-8512. DOI: 10.1039/D0CP00502A
   
   for sTDA-xTB:
   * S. Grimme and C. Bannwarth, J. Chem. Phys., 2016, 145, 054103.
     DOI: 10.1063/1.4959605
   
   in the mass-spec context:
   * V. Asgeirsson, C. Bauer and S. Grimme, Chem. Sci., 2017, 8, 4879.
     DOI: 10.1039/c7sc00601b
   * J. Koopman and S. Grimme, ACS Omega 2019, 4, 12, 15120-15133.
     DOI: 10.1021/acsomega.9b02011
   
   for metadynamics refer to:
   * S. Grimme, J. Chem. Theory Comput., 2019, 155, 2847-2862
     DOI: 10.1021/acs.jctc.9b00143
   
   for SPH calculations refer to:
   * S. Spicher and S. Grimme, J. Chem. Theory Comput., 2021, 17, 1701-1714
     DOI: 10.1021/acs.jctc.0c01306
   
   for ONIOM refer to:
   * C. Plett, A. Katbashev, S. Ehlert, S. Grimme, M. Bursch,
     Phys. Chem. Chem. Phys., 2023, 25, 17860-17868. DOI: 10.1039/D3CP02178E
   
   for DIPRO refer to:
   * J. Kohn, N. Gildemeister, S. Grimme, D. Fazzi, A. Hansen,
     J. Chem. Phys., 2023, just accepted.
   
   for PTB refer to:
   * S. Grimme, M. Mueller, A. Hansen, J. Chem. Phys., 2023, 158, 124111.
     DOI: 10.1063/5.0137838
   
   with help from (in alphabetical order)
   P. Atkinson, C. Bannwarth, F. Bohle, G. Brandenburg, E. Caldeweyher
   M. Checinski, S. Dohm, S. Ehlert, S. Ehrlich, I. Gerasimov, C. Hölzer
   A. Katbashev, J. Kohn, J. Koopman, C. Lavigne, S. Lehtola, F. März, M. Müller,
   F. Musil, H. Neugebauer, J. Pisarek, C. Plett, P. Pracht, F. Pultar,
   J. Seibert, P. Shushkov, S. Spicher, M. Stahn, M. Steiner, T. Strunk,
   J. Stückrath, T. Rose, and J. Unsleber
   
 * started run on 2026/03/05 at 12:14:02.905     
   ID    Z sym.   atoms
    1   40 Zr     1
    2   17 Cl     2, 3
    3    7 N      4
    4    6 C      5-21
    5    1 H      22-36

           -------------------------------------------------
          |                Calculation Setup                |
           -------------------------------------------------

          program call               : xtb qc_relax_1.xyz --opt --chrg 0 --uhf 0 --cycles 5 --input xcontrol
          coordinate file            : qc_relax_1.xyz
          omp threads                :                    12


molecular fragmentation (1/2 indicates fragments):
111111111111111111111112111111111111
# atoms in fragment 1/2:    35     1
 fragment masses (1/2) :      394.43        1.01
CMA distance (Bohr)    :   6.710
constraining FC (au)   :  1.0000

           -------------------------------------------------
          |                 G F N 2 - x T B                 |
           -------------------------------------------------

        Reference                      10.1021/acs.jctc.8b01176
      * Hamiltonian:
        H0-scaling (s, p, d)           1.850000    2.230000    2.230000
        zeta-weighting                 0.500000
      * Dispersion:
        s8                             2.700000
        a1                             0.520000
        a2                             5.000000
        s9                             5.000000
      * Repulsion:
        kExp                           1.500000    1.000000
        rExp                           1.000000
      * Coulomb:
        alpha                          2.000000
        third order                    shell-resolved
        anisotropic                    true
        a3                             3.000000
        a5                             4.000000
        cn-shift                       1.200000
        cn-exp                         4.000000
        max-rad                        5.000000

q/qsh data taken from xtbrestart
CAMM data taken from xtbrestart

          ...................................................
          :                      SETUP                      :
          :.................................................:
          :  # basis functions                 117          :
          :  # atomic orbitals                 114          :
          :  # shells                           60          :
          :  # electrons                       106          :
          :  max. iterations                   250          :
          :  Hamiltonian                  GFN2-xTB          :
          :  restarted?                       true          :
          :  GBSA solvation                  false          :
          :  PC potential                    false          :
          :  electronic temp.          300.0000000     K    :
          :  accuracy                    1.0000000          :
          :  -> integral cutoff          0.2500000E+02      :
          :  -> integral neglect         0.1000000E-07      :
          :  -> SCF convergence          0.1000000E-05 Eh   :
          :  -> wf. convergence          0.1000000E-03 e    :
          :  Broyden damping             0.4000000          :
          :  net charge                          0          :
          :  unpaired electrons                  0          :
          ...................................................

 iter      E             dE          RMSdq      gap      omega  full diag
   1    -58.0846702 -0.580847E+02  0.803E-01    0.12       0.0  T
   2    -57.9753951  0.109275E+00  0.191E+00    0.24       1.0  T
   3    -58.0869743 -0.111579E+00  0.768E-01    0.22       1.0  T
   4    -58.0959676 -0.899328E-02  0.488E-01    0.14       1.0  T
   5    -58.0956075  0.360134E-03  0.345E-01    0.13       1.0  T
   6    -58.0998721 -0.426458E-02  0.163E-01    0.12       1.0  T
   7    -58.0998211  0.509386E-04  0.147E-01    0.11       1.0  T
   8    -58.0982882  0.153291E-02  0.267E-01    0.10       1.0  T
   9    -58.0996199 -0.133168E-02  0.162E-01    0.10       1.0  T
  10    -58.1002763 -0.656447E-03  0.341E-02    0.11       1.0  T
  11    -58.1002928 -0.164553E-04  0.164E-02    0.11       1.0  T
  12    -58.1002992 -0.643294E-05  0.125E-02    0.11       1.3  T
  13    -58.1002761  0.231119E-04  0.329E-02    0.12       1.0  T
  14    -58.1003018 -0.257250E-04  0.683E-03    0.11       2.4  T
  15    -58.1003027 -0.902016E-06  0.308E-03    0.11       5.4  T
  16    -58.1003023  0.460811E-06  0.530E-03    0.11       3.1  T
  17    -58.1003026 -0.324314E-06  0.283E-03    0.11       5.9  T
  18    -58.1003028 -0.213733E-06  0.131E-03    0.11      12.7  T
  19    -58.1003029 -0.380132E-07  0.393E-04    0.11      42.4  T
  20    -58.1003029 -0.157448E-08  0.330E-04    0.11      50.5  T

   *** convergence criteria satisfied after 20 iterations ***

         #    Occupation            Energy/Eh            Energy/eV
      -------------------------------------------------------------
         1        2.0000           -1.0972506             -29.8577
       ...           ...                  ...                  ...
        47        2.0000           -0.4148976             -11.2899
        48        2.0000           -0.4055927             -11.0367
        49        2.0000           -0.3900162             -10.6129
        50        2.0000           -0.3571177              -9.7177
        51        2.0000           -0.3502519              -9.5308
        52        1.9998           -0.3329769              -9.0608
        53        1.7988           -0.3260366              -8.8719 (HOMO)
        54        0.2013           -0.3218747              -8.7587 (LUMO)
        55        0.0000           -0.3137484              -8.5375
        56                         -0.2901636              -7.8958
        57                         -0.2835547              -7.7159
        58                         -0.2825325              -7.6881
       ...                                ...                  ...
       114                          2.5959193              70.6386
      -------------------------------------------------------------
                  HL-Gap            0.0041618 Eh            0.1132 eV
             Fermi-level           -0.3239554 Eh           -8.8153 eV

 SCC (total)                   0 d,  0 h,  0 min,  0.292 sec
 SCC setup                      ...        0 min,  0.001 sec (  0.246%)
 Dispersion                     ...        0 min,  0.003 sec (  1.089%)
 classical contributions        ...        0 min,  0.000 sec (  0.061%)
 integral evaluation            ...        0 min,  0.015 sec (  5.082%)
 iterations                     ...        0 min,  0.206 sec ( 70.558%)
 molecular gradient             ...        0 min,  0.066 sec ( 22.722%)
 printout                       ...        0 min,  0.001 sec (  0.225%)

         :::::::::::::::::::::::::::::::::::::::::::::::::::::
         ::                     SUMMARY                     ::
         :::::::::::::::::::::::::::::::::::::::::::::::::::::
         :: total energy             -57.318515277305 Eh    ::
         :: gradient norm              0.389509925378 Eh/a0 ::
         :: HOMO-LUMO gap              0.113249484916 eV    ::
         ::.................................................::
         :: SCC energy               -58.098853472336 Eh    ::
         :: -> isotropic ES            0.058444975341 Eh    ::
         :: -> anisotropic ES          0.002289892376 Eh    ::
         :: -> anisotropic XC          0.024900375982 Eh    ::
         :: -> dispersion             -0.052315930549 Eh    ::
         :: repulsion energy           0.780338195031 Eh    ::
         :: add. restraining           0.000000000000 Eh    ::
         :: total charge               0.000000000006 e     ::
         :::::::::::::::::::::::::::::::::::::::::::::::::::::

      ----------------------------------------------------------- 
     |                   =====================                   |
     |                        A N C O P T                        |
     |                   =====================                   |
     |               Approximate Normal Coordinate               |
     |                Rational Function Optimizer                |
      ----------------------------------------------------------- 
      ----------------------------------------------------------- 
     |                   =====================                   |
     |                        A N C O P T                        |
     |                   =====================                   |
     |               Approximate Normal Coordinate               |
     |                Rational Function Optimizer                |
      ----------------------------------------------------------- 

          ...................................................
          :                      SETUP                      :
          :.................................................:
          :   optimization level            normal          :
          :   max. optcycles                     5          :
          :   ANC micro-cycles                   5          :
          :   degrees of freedom               102          :
          :.................................................:
          :   RF solver                   davidson          :
          :   write xtbopt.log                true          :
          :   linear?                        false          :
          :   energy convergence         0.5000000E-05 Eh   :
          :   grad. convergence          0.1000000E-02 Eh/α :
          :   maxmium RF displ.          1.0000000          :
          :   Hlow (freq-cutoff)         0.1000000E-01      :
          :   Hmax (freq-cutoff)         5.0000000          :
          :   S6 in model hess.         20.0000000          :
          ...................................................

generating ANC from exact Hessian ...
Using Lindh-Hessian (1995)
 Shifting diagonal of input Hessian by    6.5444667928864237E-003
 Lowest  eigenvalues of input Hessian
    0.000000    0.000000    0.000000    0.000000    0.000000    0.000000
    0.010000    0.012342    0.017646    0.022674    0.023493    0.024902
    0.027203    0.030148    0.030524    0.032610    0.034075    0.035597
 Highest eigenvalues
    2.164855    2.236984    2.398571    2.446833    2.544927    2.757188


........................................................................
.............................. CYCLE    1 ..............................
........................................................................

 iter      E             dE          RMSdq      gap      omega  full diag
   1    -58.1003029 -0.581003E+02  0.255E-04    0.11       0.0  T
   2    -58.1003028  0.959309E-07  0.179E-03    0.11       9.3  T
   3    -58.1003029 -0.973340E-07  0.124E-04    0.11     134.6  T
   4    -58.1003029  0.800455E-09  0.168E-04    0.11      99.4  T
     SCC iter.                  ...        0 min,  0.088 sec
     gradient                   ...        0 min,  0.081 sec
 * total energy  :   -57.3185153 Eh     change       -0.1915616E-08 Eh
   gradient norm :     0.3895099 Eh/α   predicted     0.0000000E+00 (-100.00%)
   displ. norm   :     0.6112734 α      lambda       -0.2020257E+00
   maximum displ.:     0.2654732 α      in ANC's #47, #40, #46, ...

........................................................................
.............................. CYCLE    2 ..............................
........................................................................

 iter      E             dE          RMSdq      gap      omega  full diag
   1    -57.8914658 -0.578915E+02  0.685E-01    0.14       0.0  T
   2    -57.7956668  0.957990E-01  0.153E+00    0.10       1.0  T
   3    -57.8716604 -0.759936E-01  0.115E+00    0.26       1.0  T
   4    -57.8919149 -0.202545E-01  0.671E-01    0.18       1.0  T
   5    -57.8920883 -0.173421E-03  0.709E-01    0.10       1.0  T
   6    -57.9029291 -0.108408E-01  0.279E-01    0.12       1.0  T
   7    -57.9048841 -0.195495E-02  0.172E-01    0.11       1.0  T
   8    -57.9056500 -0.765924E-03  0.131E-01    0.11       1.0  T
   9    -57.9061008 -0.450826E-03  0.774E-02    0.11       1.0  T
  10    -57.9061710 -0.702171E-04  0.437E-02    0.11       1.0  T
  11    -57.9062592 -0.881494E-04  0.134E-02    0.11       1.2  T
  12    -57.9062601 -0.949089E-06  0.876E-03    0.11       1.9  T
  13    -57.9062613 -0.118389E-05  0.614E-03    0.11       2.7  T
  14    -57.9062612  0.147034E-06  0.639E-03    0.11       2.6  T
  15    -57.9062622 -0.991669E-06  0.269E-03    0.11       6.2  T
  16    -57.9062619  0.318984E-06  0.428E-03    0.11       3.9  T
  17    -57.9062622 -0.389523E-06  0.209E-03    0.11       8.0  T
  18    -57.9062623 -0.981532E-07  0.701E-04    0.11      23.8  T
  19    -57.9062624 -0.101516E-07  0.524E-04    0.11      31.8  T
     SCC iter.                  ...        0 min,  0.190 sec
     gradient                   ...        0 min,  0.057 sec
 * total energy  :   -57.2914192 Eh     change        0.2709611E-01 Eh
   gradient norm :     0.2278762 Eh/α   predicted    -0.1387682E+00 (-612.13%)
   displ. norm   :     0.7039732 α      lambda       -0.1469468E+00
   maximum displ.:     0.3355209 α      in ANC's #40, #47, #36, ...

........................................................................
.............................. CYCLE    3 ..............................
........................................................................

 iter      E             dE          RMSdq      gap      omega  full diag
   1    -57.6309261 -0.576309E+02  0.832E-01    0.10       0.0  T
   2    -56.8249661  0.805960E+00  0.304E+00    0.15       1.0  T
   3    -57.6184533 -0.793487E+00  0.148E+00    0.21       1.0  T
   4    -57.6523568 -0.339035E-01  0.678E-01    0.10       1.0  T
   5    -57.6388998  0.134570E-01  0.105E+00    0.19       1.0  T
   6    -57.6638852 -0.249854E-01  0.479E-01    0.15       1.0  T
   7    -57.6668339 -0.294861E-02  0.342E-01    0.07       1.0  T
   8    -57.6671925 -0.358678E-03  0.277E-01    0.12       1.0  T
   9    -57.6692193 -0.202674E-02  0.144E-01    0.10       1.0  T
  10    -57.6698198 -0.600563E-03  0.100E-01    0.11       1.0  T
  11    -57.6700075 -0.187622E-03  0.460E-02    0.10       1.0  T
  12    -57.6700433 -0.358371E-04  0.211E-02    0.10       1.0  T
  13    -57.6700548 -0.114835E-04  0.164E-02    0.10       1.0  T
  14    -57.6700534  0.139538E-05  0.186E-02    0.10       1.0  T
  15    -57.6700586 -0.521760E-05  0.803E-03    0.10       2.1  T
  16    -57.6700596 -0.969166E-06  0.625E-03    0.10       2.7  T
  17    -57.6700607 -0.109491E-05  0.324E-03    0.10       5.1  T
  18    -57.6700609 -0.223265E-06  0.212E-03    0.10       7.9  T
  19    -57.6700609 -0.164494E-07  0.162E-03    0.10      10.3  T
  20    -57.6700610 -0.782093E-07  0.657E-04    0.10      25.4  T
  21    -57.6700610 -0.316759E-08  0.705E-04    0.10      23.7  T
     SCC iter.                  ...        0 min,  0.142 sec
     gradient                   ...        0 min,  0.058 sec
 * total energy  :   -57.1775935 Eh     change        0.1138257E+00 Eh
   gradient norm :     0.1440883 Eh/α   predicted    -0.1098873E+00 (-196.54%)
   displ. norm   :     0.7228244 α      lambda       -0.9795827E-01
   maximum displ.:     0.3793517 α      in ANC's #40, #47, #36, ...

........................................................................
.............................. CYCLE    4 ..............................
........................................................................

 iter      E             dE          RMSdq      gap      omega  full diag
   1    -57.3592327 -0.573592E+02  0.104E+00    0.08       0.0  T
   2    -56.3160932  0.104314E+01  0.350E+00    0.26       1.0  T
   3    -57.3436979 -0.102760E+01  0.171E+00    0.29       1.0  T
   4    -57.4044782 -0.607802E-01  0.729E-01    0.10       1.0  T
   5    -57.3882839  0.161943E-01  0.108E+00    0.21       1.0  T
   6    -57.4165451 -0.282612E-01  0.582E-01    0.16       1.0  T
   7    -57.4227880 -0.624295E-02  0.340E-01    0.07       1.0  T
   8    -57.4245093 -0.172126E-02  0.260E-01    0.11       1.0  T
   9    -57.4240582  0.451102E-03  0.205E-01    0.09       1.0  T
  10    -57.4257496 -0.169145E-02  0.102E-01    0.10       1.0  T
  11    -57.4260914 -0.341772E-03  0.655E-02    0.10       1.0  T
  12    -57.4262135 -0.122103E-03  0.338E-02    0.09       1.0  T
  13    -57.4262334 -0.198801E-04  0.249E-02    0.09       1.0  T
  14    -57.4262436 -0.102805E-04  0.127E-02    0.09       1.3  T
  15    -57.4262479 -0.424540E-05  0.992E-03    0.09       1.7  T
  16    -57.4262491 -0.123936E-05  0.916E-03    0.09       1.8  T
  17    -57.4262488  0.354231E-06  0.833E-03    0.09       2.0  T
  18    -57.4262503 -0.149525E-05  0.416E-03    0.09       4.0  T
  19    -57.4262505 -0.217378E-06  0.284E-03    0.09       5.9  T
  20    -57.4262506 -0.134916E-06  0.215E-03    0.09       7.7  T
  21    -57.4262507 -0.827471E-07  0.111E-03    0.09      15.0  T
  22    -57.4262507 -0.257812E-07  0.834E-04    0.09      20.0  T
  23    -57.4262507 -0.124064E-07  0.675E-04    0.09      24.7  T
     SCC iter.                  ...        0 min,  0.142 sec
     gradient                   ...        0 min,  0.049 sec
 * total energy  :   -57.0177945 Eh     change        0.1597989E+00 Eh
   gradient norm :     0.1023792 Eh/α   predicted    -0.7456974E-01 (-146.66%)
   displ. norm   :     0.7403171 α      lambda       -0.6932091E-01
   maximum displ.:     0.4097068 α      in ANC's #40, #47, #36, ...

........................................................................
.............................. CYCLE    5 ..............................
........................................................................

 iter      E             dE          RMSdq      gap      omega  full diag
   1    -57.0711346 -0.570711E+02  0.128E+00    0.07       0.0  T
   2    -55.9174413  0.115369E+01  0.378E+00    0.31       1.0  T
   3    -57.0547861 -0.113734E+01  0.185E+00    0.34       1.0  T
   4    -57.1422158 -0.874297E-01  0.809E-01    0.10       1.0  T
   5    -57.1361093  0.610647E-02  0.985E-01    0.23       1.0  T
   6    -57.1606796 -0.245703E-01  0.619E-01    0.12       1.0  T
   7    -57.1653433 -0.466373E-02  0.400E-01    0.09       1.0  T
   8    -57.1691283 -0.378496E-02  0.324E-01    0.10       1.0  T
   9    -57.1672246  0.190363E-02  0.298E-01    0.08       1.0  T
  10    -57.1711747 -0.395006E-02  0.149E-01    0.08       1.0  T
  11    -57.1719060 -0.731335E-03  0.576E-02    0.09       1.0  T
  12    -57.1720119 -0.105876E-03  0.304E-02    0.09       1.0  T
  13    -57.1720202 -0.828164E-05  0.273E-02    0.09       1.0  T
  14    -57.1720368 -0.166022E-04  0.177E-02    0.09       1.0  T
  15    -57.1720394 -0.258150E-05  0.114E-02    0.09       1.5  T
  16    -57.1720417 -0.231466E-05  0.872E-03    0.09       1.9  T
  17    -57.1720433 -0.163199E-05  0.534E-03    0.09       3.1  T
  18    -57.1720435 -0.203261E-06  0.352E-03    0.09       4.7  T
  19    -57.1720436 -0.303733E-07  0.371E-03    0.09       4.5  T
  20    -57.1720439 -0.361641E-06  0.221E-03    0.09       7.5  T
  21    -57.1720440 -0.104580E-06  0.143E-03    0.09      11.6  T
  22    -57.1720441 -0.392824E-07  0.942E-04    0.09      17.7  T
  23    -57.1720441 -0.108088E-07  0.666E-04    0.09      25.0  T
     SCC iter.                  ...        0 min,  0.178 sec
     gradient                   ...        0 min,  0.040 sec
 * total energy  :   -56.8239312 Eh     change        0.1938633E+00 Eh
   gradient norm :     0.0742599 Eh/α   predicted    -0.5365681E-01 (-127.68%)
   displ. norm   :     0.7557935 α      lambda       -0.5028889E-01
   maximum displ.:     0.4310241 α      in ANC's #40, #47, #36, ...

   *** FAILED TO CONVERGE GEOMETRY OPTIMIZATION IN 5 ITERATIONS ***


 ANCopt (total)                0 d,  0 h,  0 min,  1.252 sec
 optimizer setup                ...        0 min,  0.001 sec (  0.047%)
 model hessian                  ...        0 min,  0.066 sec (  5.308%)
 ANC generation                 ...        0 min,  0.011 sec (  0.869%)
 coordinate transformation      ...        0 min,  0.000 sec (  0.024%)
 single point calculation       ...        0 min,  1.164 sec ( 92.935%)
 optimization log               ...        0 min,  0.007 sec (  0.546%)
 hessian update                 ...        0 min,  0.001 sec (  0.057%)
 rational function              ...        0 min,  0.002 sec (  0.143%)

================
 final structure:
================
36
 xtb: 6.7.1 (edcfbbe)
Zr          -0.03367133471712        0.11445149739599       -0.08486786233889
Cl          -0.05499640824140        0.07535017543769       -2.32024916180946
Cl           2.23384277534728        0.09916429146426       -0.15339148789429
N            0.08059908588220        0.08428060715035        1.90271825994507
C           -1.24003340266367        0.37349398718943        2.58198281071491
C           -2.17131697437810        1.71432393822300        2.31981604874705
C           -1.39154940661814        2.01208762629212        0.86361760167654
C           -2.25442811318264        2.21426824659664       -0.33406705280502
C           -1.33305024217958        2.92624903678399       -1.35023727069339
C           -0.02507986578170        3.29878178072799       -0.67130262679387
C           -0.33418509679501        3.20767650193098        0.85361035032768
C           -1.84605865139601       -0.38144244722152        3.92277076282799
C           -0.73922945718823       -1.47947259449881        4.54840112190365
C            0.52612976044841       -2.03386141104950        3.61371908396839
C            0.72420794368808       -1.27403747716058        2.17194696164593
C            1.11905311055050       -2.12236978406677        0.83885267849101
C            0.01621957710643       -1.92570622154426       -0.35853344272924
C           -1.44303099107048       -1.81887108707727       -0.71764306164443
C           -2.36121016507648       -1.97426039039858        0.44601487861867
C           -1.34427358804324       -3.21268595159443        0.63169235568015
C           -0.12114640393164       -3.41017014341603       -0.44954344453025
H           -1.69516069817793        2.60486764033207        3.25197021856504
H           -3.43318288229179        1.22871715443938        2.16980302942607
H           -3.40906577851068        1.50626956656003       -0.61771984245966
H           -1.33221082615970        2.56384356253725       -2.67383136431216
H            1.23620033764589        3.36883650681781       -1.20944692964233
H            0.72242023909085        2.92155121015574        1.74187037944227
H           -2.97931946395398       -0.01476120740787        4.48078624343834
H           -1.15188897336337       -2.18733528030653        5.58530004242076
H            1.03906112442376       -3.24419384492441        3.78767880968607
H            1.27968646620457       -3.33602937127429        1.43620091378267
H            2.26081778016173       -1.51644452493639        0.42006610387686
H           -1.92190265128211       -2.13630832423424       -1.95837223542200
H           -2.67175792303698       -1.21062372027736        1.53714183810416
H           -1.10729793134256       -3.42531910068044        2.00860378878545
H           -0.45064897116719       -3.83308844796544       -1.72935949899979

 Bond Distances (Angstroems)
 ---------------------------
Zr1-Cl2=2.2358       Zr1-Cl3=2.2686       Zr1-N4=1.9911        Zr1-C5=2.9385        Zr1-C7=2.5188        Zr1-C8=3.0664        
Zr1-C15=2.7560       Zr1-C16=2.6806       Zr1-C17=2.0590       Zr1-C18=2.4748       Cl2-Zr1=2.2358       Cl3-Zr1=2.2686       
Cl3-H32=1.7146       N4-Zr1=1.9911        N4-C5=1.5130         N4-C15=1.5270        C5-Zr1=2.9385        C5-N4=1.5130         
C5-C6=1.6534         C5-C12=1.6538        C6-C5=1.6534         C6-C7=1.6785         C6-H22=1.3743        C6-H23=1.3604        
C7-Zr1=2.5188        C7-C6=1.6785         C7-C8=1.4899         C7-C11=1.5961        C8-Zr1=3.0664        C8-C7=1.4899         
C8-C9=1.5455         C8-H24=1.3838        C9-C8=1.5455         C9-C10=1.5200        C9-H25=1.3723        C10-C9=1.5200        
C10-C11=1.5586       C10-H26=1.3731       C11-C7=1.5961        C11-C10=1.5586       C12-C5=1.6538        C12-C13=1.6799       
C12-H28=1.3153       C13-C12=1.6799       C13-C14=1.6680       C13-H29=1.3216       C14-C13=1.6680       C14-C15=1.6417       
C14-H30=1.3260       C15-Zr1=2.7560       C15-N4=1.5270        C15-C14=1.6417       C15-C16=1.6287       C16-Zr1=2.6806       
C16-C15=1.6287       C16-C17=1.6397       C16-H31=1.3622       C16-H32=1.3587       C17-Zr1=2.0590       C17-C16=1.6397       
C17-C18=1.5066       C17-C21=1.4936       C18-Zr1=2.4748       C18-C17=1.5066       C18-C19=1.4904       C18-C20=1.9425       
C18-H33=1.3673       C19-C18=1.4904       C19-C20=1.6132       C19-H34=1.3675       C20-C18=1.9425       C20-C19=1.6132       
C20-C21=1.6444       C21-C17=1.4936       C21-C20=1.6444       C21-H36=1.3876       H22-C6=1.3743        H23-C6=1.3604        
H24-C8=1.3838        H25-C9=1.3723        H26-C10=1.3731       H28-C12=1.3153       H29-C13=1.3216       H30-C14=1.3260       
H31-C16=1.3622       H32-Cl3=1.7146       H32-C16=1.3587       H33-C18=1.3673       H34-C19=1.3675       H36-C21=1.3876       
 C  H  Rav=1.3592 sigma=0.0225  Rmin=1.3153  Rmax=1.3876    13
 C  C  Rav=1.6129 sigma=0.1022  Rmin=1.4899  Rmax=1.9425    19
 N  C  Rav=1.5200 sigma=0.0070  Rmin=1.5130  Rmax=1.5270     2
 Cl H  Rav=1.7146 sigma=0.0000  Rmin=1.7146  Rmax=1.7146     1
 Zr C  Rav=2.6420 sigma=0.3083  Rmin=2.0590  Rmax=3.0664     7
 Zr N  Rav=1.9911 sigma=0.0000  Rmin=1.9911  Rmax=1.9911     1
 Zr Cl Rav=2.2522 sigma=0.0164  Rmin=2.2358  Rmax=2.2686     2

 selected bond angles (degree)
 --------------------
Cl3-Zr1-Cl2= 88.81             N4-Zr1-Cl2=176.68              N4-Zr1-Cl3= 88.43              C5-Zr1-Cl2=154.83              
C5-Zr1-Cl3=116.00              C5-Zr1-N4= 28.23               C7-Zr1-Cl2=112.61              C7-Zr1-Cl3=123.73              
C7-Zr1-N4= 70.52               C7-Zr1-C5= 50.99               C8-Zr1-Cl2= 85.63              C8-Zr1-Cl3=136.55              
C8-Zr1-N4= 97.65               C8-Zr1-C5= 73.50               C8-Zr1-C7= 28.87               C15-Zr1-Cl2=144.34             
C15-Zr1-Cl3= 75.31             C15-Zr1-N4= 32.77              C15-Zr1-C5= 54.14              C15-Zr1-C7=102.68              
C15-Zr1-C8=127.64              C16-Zr1-Cl2=109.51             C16-Zr1-Cl3= 64.85             C16-Zr1-N4= 67.58              
C16-Zr1-C5= 86.41              C16-Zr1-C7=136.95              C16-Zr1-C8=155.62              C16-Zr1-C15= 34.83             
C17-Zr1-Cl2= 81.37             C17-Zr1-Cl3= 88.00             C17-Zr1-N4= 96.68              C17-Zr1-C5=102.59              
C17-Zr1-C7=144.06              C17-Zr1-C8=133.25              C17-Zr1-C15= 66.61             C17-Zr1-C16= 37.68             
C18-Zr1-Cl2= 74.05             C18-Zr1-Cl3=123.80             C18-Zr1-N4=106.03              C18-Zr1-C5= 93.85              
C18-Zr1-C7=112.20              C18-Zr1-C8= 95.84              C18-Zr1-C15= 88.42             C18-Zr1-C16= 71.40             
C18-Zr1-C17= 37.42             H32-Cl3-Zr1= 90.69             C5-N4-Zr1=113.28               C15-N4-Zr1=102.34              
C15-N4-C5=117.31               N4-C5-Zr1= 38.50               C6-C5-Zr1= 99.14               C6-C5-N4=125.13                
C12-C5-Zr1=147.78              C12-C5-N4=126.63               C12-C5-C6=107.00               C7-C6-C5= 91.13                
H22-C6-C5=102.87               H22-C6-C7=108.21               H23-C6-C5=104.50               H23-C6-C7=113.49               
H23-C6-H22=128.87              C6-C7-Zr1=116.33               C8-C7-Zr1= 96.42               C8-C7-C6=116.90                
C11-C7-Zr1=101.82              C11-C7-C6=116.49               C11-C7-C8=106.08               C7-C8-Zr1= 54.71               
C9-C8-Zr1= 86.40               C9-C8-C7=104.23                H24-C8-Zr1=105.70              H24-C8-C7=125.35               
H24-C8-C9=126.75               C10-C9-C8=109.40               H25-C9-C8=120.86               H25-C9-C10=119.67              
C11-C10-C9=104.60              H26-C10-C9=128.89              H26-C10-C11=124.65             

 selected dihedral angles (degree)
 ---------------------------------
H32-Cl3-Zr1-Cl2=251.43        H32-Cl3-Zr1-N4= 69.58         H32-Cl3-Zr1-C5= 75.88         H32-Cl3-Zr1-C7=134.78         
H32-Cl3-Zr1-C8=169.06         H32-Cl3-Zr1-C15= 39.17        H32-Cl3-Zr1-C16=  3.70        H32-Cl3-Zr1-C17=332.84        
H32-Cl3-Zr1-C18=321.28        C5-N4-Zr1-Cl2=201.88          C5-N4-Zr1-Cl3=167.97          C5-N4-Zr1-C7= 41.18           
C5-N4-Zr1-C8= 31.15           C5-N4-Zr1-C15=232.75          C5-N4-Zr1-C16=231.31          C5-N4-Zr1-C17=255.77          
C5-N4-Zr1-C18=292.79          C15-N4-Zr1-Cl2=329.13         C15-N4-Zr1-Cl3=295.22         C15-N4-Zr1-C5=127.25          
C15-N4-Zr1-C7=168.43          C15-N4-Zr1-C8=158.41          C15-N4-Zr1-C16=358.56         C15-N4-Zr1-C17= 23.02         
C15-N4-Zr1-C18= 60.05         N4-C5-Zr1-Cl2=177.09          N4-C5-Zr1-Cl3=346.59          N4-C5-Zr1-C7=233.02           
N4-C5-Zr1-C8=212.33           N4-C5-Zr1-C15= 32.12          N4-C5-Zr1-C16= 46.30          N4-C5-Zr1-C17= 80.56          
N4-C5-Zr1-C18=117.37          C6-C5-Zr1-Cl2=314.33          C6-C5-Zr1-Cl3=123.83          C6-C5-Zr1-N4=137.23           
C6-C5-Zr1-C7= 10.25           C6-C5-Zr1-C8=349.56           C6-C5-Zr1-C15=169.35          C6-C5-Zr1-C16=183.54          
C6-C5-Zr1-C17=217.79          C6-C5-Zr1-C18=254.60          C12-C5-Zr1-Cl2= 98.48         C12-C5-Zr1-Cl3=267.99         
C12-C5-Zr1-N4=281.39          C12-C5-Zr1-C7=154.41          C12-C5-Zr1-C8=133.72          C12-C5-Zr1-C15=313.51         
C12-C5-Zr1-C16=327.69         C12-C5-Zr1-C17=  1.95         C12-C5-Zr1-C18= 38.76         Zr1-C5-N4-C15=241.06          
C6-C5-N4-Zr1=304.94           C6-C5-N4-C15=186.00           C12-C5-N4-Zr1=139.36          C12-C5-N4-C15= 20.42          
C7-C6-C5-Zr1=348.02           C7-C6-C5-N4= 19.14            C7-C6-C5-C12=187.07           H22-C6-C5-Zr1=239.04          
H22-C6-C5-N4=270.16           H22-C6-C5-C12= 78.10          H23-C6-C5-Zr1=102.66          H23-C6-C5-N4=133.78           
H23-C6-C5-C12=301.71          C6-C7-Zr1-Cl2=146.43          C6-C7-Zr1-Cl3=250.97          C6-C7-Zr1-N4=325.24           
C6-C7-Zr1-C5=348.87           C6-C7-Zr1-C8=124.31           C6-C7-Zr1-C15=331.63          C6-C7-Zr1-C16=339.02          
C6-C7-Zr1-C17= 39.11          C6-C7-Zr1-C18= 65.14          C8-C7-Zr1-Cl2= 22.12          C8-C7-Zr1-Cl3=126.66          
C8-C7-Zr1-N4=200.93           C8-C7-Zr1-C5=224.56           C8-C7-Zr1-C15=207.32          C8-C7-Zr1-C16=214.71          
C8-C7-Zr1-C17=274.80          C8-C7-Zr1-C18=300.83          C11-C7-Zr1-Cl2=274.16         C11-C7-Zr1-Cl3= 18.70         
C11-C7-Zr1-N4= 92.98          C11-C7-Zr1-C5=116.60          C11-C7-Zr1-C8=252.04          C11-C7-Zr1-C15= 99.37         
C11-C7-Zr1-C16=106.76         C11-C7-Zr1-C17=166.84         C11-C7-Zr1-C18=192.88         Zr1-C7-C6-C5= 15.47           
Zr1-C7-C6-H22=119.42          Zr1-C7-C6-H23=269.11          C8-C7-C6-C5=128.48            C8-C7-C6-H22=232.43           
C8-C7-C6-H23= 22.11           C11-C7-C6-C5=255.34           C11-C7-C6-H22=359.29          C11-C7-C6-H23=148.97          
Zr1-C8-C7-C6=236.12           Zr1-C8-C7-C11=104.30          C9-C8-C7-Zr1=285.00           C9-C8-C7-C6=161.12            
C9-C8-C7-C11= 29.30           H24-C8-C7-Zr1= 84.51          H24-C8-C7-C6=320.63           H24-C8-C7-C11=188.81          
C10-C9-C8-Zr1=300.01          C10-C9-C8-C7=352.19           C10-C9-C8-H24=193.07          H25-C9-C8-Zr1= 85.27          
H25-C9-C8-C7=137.46           H25-C9-C8-H24=338.33          C11-C10-C9-C8=342.86          C11-C10-C9-H25=197.12         
H26-C10-C9-C8=147.66          H26-C10-C9-H25=  1.92         

 CMA Distance (Angstroems)
 ---------------------------
R(CMA):  3.6832
           -------------------------------------------------
          |                Final Singlepoint                |
           -------------------------------------------------

          ...................................................
          :                      SETUP                      :
          :.................................................:
          :  # basis functions                 117          :
          :  # atomic orbitals                 114          :
          :  # shells                           60          :
          :  # electrons                       106          :
          :  max. iterations                   250          :
          :  Hamiltonian                  GFN2-xTB          :
          :  restarted?                      false          :
          :  GBSA solvation                  false          :
          :  PC potential                    false          :
          :  electronic temp.          300.0000000     K    :
          :  accuracy                    1.0000000          :
          :  -> integral cutoff          0.2500000E+02      :
          :  -> integral neglect         0.1000000E-07      :
          :  -> SCF convergence          0.1000000E-05 Eh   :
          :  -> wf. convergence          0.1000000E-03 e    :
          :  Broyden damping             0.4000000          :
          :  net charge                          0          :
          :  unpaired electrons                  0          :
          ...................................................

 iter      E             dE          RMSdq      gap      omega  full diag
   1    -56.7888378 -0.567888E+02  0.141E+00    0.08       0.0  T
   2    -55.5395593  0.124928E+01  0.396E+00    0.35       1.0  T
   3    -56.7608267 -0.122127E+01  0.194E+00    0.37       1.0  T
   4    -56.8689004 -0.108074E+00  0.841E-01    0.09       1.0  T
   5    -56.8681381  0.762310E-03  0.969E-01    0.23       1.0  T
   6    -56.8934101 -0.252720E-01  0.595E-01    0.10       1.0  T
   7    -56.8957517 -0.234159E-02  0.481E-01    0.10       1.0  T
   8    -56.9021433 -0.639166E-02  0.288E-01    0.09       1.0  T
   9    -56.8958483  0.629504E-02  0.368E-01    0.06       1.0  T
  10    -56.9043073 -0.845903E-02  0.985E-02    0.07       1.0  T
  11    -56.9045074 -0.200076E-03  0.549E-02    0.08       1.0  T
  12    -56.9046300 -0.122629E-03  0.271E-02    0.08       1.0  T
  13    -56.9046530 -0.230202E-04  0.212E-02    0.08       1.0  T
  14    -56.9046599 -0.687335E-05  0.138E-02    0.08       1.2  T
  15    -56.9046623 -0.240705E-05  0.116E-02    0.08       1.4  T
  16    -56.9046630 -0.633525E-06  0.934E-03    0.08       1.8  T
  17    -56.9046642 -0.126715E-05  0.635E-03    0.08       2.6  T
  18    -56.9046652 -0.927673E-06  0.319E-03    0.08       5.2  T
  19    -56.9046652 -0.960771E-07  0.268E-03    0.08       6.2  T
  20    -56.9046654 -0.161090E-06  0.187E-03    0.08       8.9  T
  21    -56.9046655 -0.560073E-07  0.131E-03    0.08      12.7  T
  22    -56.9046655 -0.255587E-07  0.969E-04    0.08      17.2  T
  23    -56.9046655 -0.143707E-07  0.526E-04    0.08      31.7  T

   *** convergence criteria satisfied after 23 iterations ***

         #    Occupation            Energy/Eh            Energy/eV
      -------------------------------------------------------------
         1        2.0000           -1.1022299             -29.9932
       ...           ...                  ...                  ...
        47        2.0000           -0.4113403             -11.1931
        48        2.0000           -0.4033278             -10.9751
        49        2.0000           -0.3924448             -10.6790
        50        2.0000           -0.3706970             -10.0872
        51        2.0000           -0.3625041              -9.8642
        52        2.0000           -0.3494832              -9.5099
        53        1.6501           -0.3405762              -9.2676 (HOMO)
        54        0.3499           -0.3376293              -9.1874 (LUMO)
        55        0.0000           -0.3288885              -8.9495
        56                         -0.3167398              -8.6189
        57                         -0.2967225              -8.0742
        58                         -0.2928414              -7.9686
       ...                                ...                  ...
       114                          2.4509100              66.6927
      -------------------------------------------------------------
                  HL-Gap            0.0029469 Eh            0.0802 eV
             Fermi-level           -0.3391028 Eh           -9.2275 eV

 SCC (total)                   0 d,  0 h,  0 min,  0.238 sec
 SCC setup                      ...        0 min,  0.001 sec (  0.380%)
 Dispersion                     ...        0 min,  0.001 sec (  0.318%)
 classical contributions        ...        0 min,  0.000 sec (  0.074%)
 integral evaluation            ...        0 min,  0.007 sec (  2.826%)
 iterations                     ...        0 min,  0.182 sec ( 76.803%)
 molecular gradient             ...        0 min,  0.046 sec ( 19.278%)
 printout                       ...        0 min,  0.001 sec (  0.299%)

         :::::::::::::::::::::::::::::::::::::::::::::::::::::
         ::                     SUMMARY                     ::
         :::::::::::::::::::::::::::::::::::::::::::::::::::::
         :: total energy             -56.599924220736 Eh    ::
         :: gradient norm              0.053903750452 Eh/a0 ::
         :: HOMO-LUMO gap              0.080188242179 eV    ::
         ::.................................................::
         :: SCC energy               -56.903123529233 Eh    ::
         :: -> isotropic ES            0.045087566759 Eh    ::
         :: -> anisotropic ES          0.001350550930 Eh    ::
         :: -> anisotropic XC          0.047616409237 Eh    ::
         :: -> dispersion             -0.052491055501 Eh    ::
         :: repulsion energy           0.280138492371 Eh    ::
         :: add. restraining           0.023060816127 Eh    ::
         :: total charge               0.000000000000 e     ::
         :::::::::::::::::::::::::::::::::::::::::::::::::::::

           -------------------------------------------------
          |                Property Printout                |
           -------------------------------------------------

    * Orbital Energies and Occupations

         #    Occupation            Energy/Eh            Energy/eV
      -------------------------------------------------------------
         1        2.0000           -1.1022299             -29.9932
       ...           ...                  ...                  ...
        41        2.0000           -0.4264229             -11.6036
        42        2.0000           -0.4251277             -11.5683
        43        2.0000           -0.4237752             -11.5315
        44        2.0000           -0.4227238             -11.5029
        45        2.0000           -0.4196026             -11.4180
        46        2.0000           -0.4166370             -11.3373
        47        2.0000           -0.4113403             -11.1931
        48        2.0000           -0.4033278             -10.9751
        49        2.0000           -0.3924448             -10.6790
        50        2.0000           -0.3706970             -10.0872
        51        2.0000           -0.3625041              -9.8642
        52        2.0000           -0.3494832              -9.5099
        53        1.6501           -0.3405762              -9.2676 (HOMO)
        54        0.3499           -0.3376293              -9.1874 (LUMO)
        55        0.0000           -0.3288885              -8.9495
        56                         -0.3167398              -8.6189
        57                         -0.2967225              -8.0742
        58                         -0.2928414              -7.9686
        59                         -0.2907078              -7.9106
        60                         -0.2818460              -7.6694
        61                         -0.2705191              -7.3612
        62                         -0.2657854              -7.2324
        63                         -0.2466013              -6.7104
        64                         -0.2285214              -6.2184
       ...                                ...                  ...
       114                          2.4509100              66.6927
      -------------------------------------------------------------
                  HL-Gap            0.0029469 Eh            0.0802 eV
             Fermi-level           -0.3391028 Eh           -9.2275 eV

     #   Z          covCN         q      C6AA      α(0)
     1  40 Zr       6.358     1.046   136.324    17.544
     2  17 Cl       0.774    -0.490   115.207    16.419
     3  17 Cl       1.290    -0.323   109.564    16.014
     4   7 N        2.553    -0.284    27.351     7.767
     5   6 C        3.127     0.056    26.557     8.438
     6   6 C        3.136    -0.030    28.522     8.742
     7   6 C        3.657    -0.080    22.340     6.784
     8   6 C        2.716    -0.041    28.990     8.814
     9   6 C        2.615    -0.039    28.972     8.803
    10   6 C        2.634    -0.028    28.689     8.762
    11   6 C        2.523    -0.076    30.014     8.952
    12   6 C        2.626    -0.051    29.266     8.849
    13   6 C        2.608    -0.022    28.555     8.739
    14   6 C        2.614    -0.035    28.875     8.788
    15   6 C        3.332     0.042    24.752     7.890
    16   6 C        3.976    -0.093    22.199     6.694
    17   6 C        3.994    -0.072    21.797     6.633
    18   6 C        4.259     0.029    20.001     6.352
    19   6 C        2.661    -0.131    31.324     9.157
    20   6 C        3.284    -0.007    26.674     8.302
    21   6 C        2.960    -0.068    29.689     8.937
    22   1 H        0.606     0.073     2.459     2.556
    23   1 H        0.641     0.049     2.649     2.623
    24   1 H        0.581    -0.005     3.928     3.262
    25   1 H        0.611     0.010     3.431     3.014
    26   1 H        0.609     0.016     3.327     2.970
    27   1 H        0.512    -0.025     5.241     3.890
    28   1 H        0.741     0.064     2.237     2.363
    29   1 H        0.728     0.041     2.556     2.530
    30   1 H        0.719     0.052     2.423     2.467
    31   1 H        0.636     0.079     2.273     2.433
    32   1 H        1.136     0.219     1.000     1.561
    33   1 H        0.624     0.088     2.200     2.403
    34   1 H        0.623     0.031     2.990     2.802
    35   1 H        0.502    -0.012     4.989     3.814
    36   1 H        0.571     0.019     3.502     3.093

 Mol. C6AA /au·bohr⁶  :      22960.659677
 Mol. C8AA /au·bohr⁸  :     762416.704142
 Mol. α(0) /au        :        239.161156


Wiberg/Mayer (AO) data.
largest (>0.10) Wiberg bond orders for each atom

 ---------------------------------------------------------------------------
     #   Z sym  total        # sym  WBO       # sym  WBO       # sym  WBO
 ---------------------------------------------------------------------------
     1  40 Zr   4.211 --     3 Cl   0.740     2 Cl   0.700     4 N    0.504
                            17 C    0.385     7 C    0.318    18 C    0.217
                            16 C    0.144     8 C    0.136    11 C    0.115
                            10 C    0.110    19 C    0.105
     2  17 Cl   0.906 --     1 Zr   0.700
     3  17 Cl   1.192 --     1 Zr   0.740    32 H    0.188
     4   7 N    3.252 --     5 C    1.221    15 C    1.149     1 Zr   0.504
     5   6 C    3.909 --    12 C    1.324     4 N    1.221     6 C    0.968
     6   6 C    3.925 --     5 C    0.968     7 C    0.940    23 H    0.932
                            22 H    0.924
     7   6 C    3.895 --     8 C    1.280    11 C    1.083     6 C    0.940
                             1 Zr   0.318
     8   6 C    3.902 --     9 C    1.294     7 C    1.280    24 H    0.902
                            11 C    0.151     1 Zr   0.136
     9   6 C    3.904 --    10 C    1.412     8 C    1.294    25 H    0.921
    10   6 C    3.941 --     9 C    1.412    11 C    1.342    26 H    0.916
                             1 Zr   0.110
    11   6 C    3.697 --    10 C    1.342     7 C    1.083    27 H    0.872
                             8 C    0.151     1 Zr   0.115
    12   6 C    3.884 --    13 C    1.367     5 C    1.324    28 H    0.947
    13   6 C    3.834 --    12 C    1.367    14 C    1.329    29 H    0.953
    14   6 C    3.894 --    15 C    1.365    13 C    1.329    30 H    0.942
    15   6 C    3.863 --    14 C    1.365     4 N    1.149    16 C    0.984
    16   6 C    3.844 --    15 C    0.984    31 H    0.895    17 C    0.823
                            32 H    0.669     1 Zr   0.144
    17   6 C    3.616 --    21 C    0.946    18 C    0.908    16 C    0.823
                             1 Zr   0.385    20 C    0.298
    18   6 C    3.816 --    19 C    1.003    17 C    0.908    33 H    0.871
                            21 C    0.460     1 Zr   0.217    20 C    0.189
    19   6 C    3.468 --    20 C    1.239    18 C    1.003    34 H    0.819
                             1 Zr   0.105
    20   6 C    3.604 --    19 C    1.239    35 H    0.867    21 C    0.859
                            17 C    0.298    18 C    0.189
    21   6 C    3.479 --    17 C    0.946    36 H    0.865    20 C    0.859
                            18 C    0.460
    22   1 H    0.989 --     6 C    0.924
    23   1 H    0.993 --     6 C    0.932
    24   1 H    0.996 --     8 C    0.902
    25   1 H    0.997 --     9 C    0.921
    26   1 H    0.996 --    10 C    0.916
    27   1 H    0.996 --    11 C    0.872
    28   1 H    0.993 --    12 C    0.947
    29   1 H    0.995 --    13 C    0.953
    30   1 H    0.995 --    14 C    0.942
    31   1 H    0.979 --    16 C    0.895
    32   1 H    0.938 --    16 C    0.669     3 Cl   0.188
    33   1 H    0.985 --    18 C    0.871
    34   1 H    0.986 --    19 C    0.819
    35   1 H    0.981 --    20 C    0.867
    36   1 H    0.984 --    21 C    0.865
 ---------------------------------------------------------------------------

Topologies differ in total number of bonds
Writing topology from bond orders to xtbtopo.mol

molecular dipole:
                 x           y           z       tot (Debye)
 q only:       -0.555      -1.334       2.135
   full:       -0.918      -1.327       2.085       6.702
molecular quadrupole (traceless):
                xx          xy          yy          xz          yz          zz
 q only:        2.567      -5.276      -2.640      -3.147      -1.197       0.074
  q+dip:        0.856      -1.374     -12.945      -6.047      -4.477      12.089
   full:        1.098       1.127     -11.881      -4.266      -4.623      10.783

           -------------------------------------------------
          |                Geometry Summary                 |
           -------------------------------------------------

      molecular mass/u    :      395.4378415
   center of mass at/Å    :       -0.2761471      -0.0900995       0.4469039
  moments of inertia/u·Å² :        0.1498358E+04   0.1860879E+04   0.2357450E+04
rotational constants/cm⁻¹ :        0.1125073E-01   0.9058961E-02   0.7150791E-02

 * 7 selected distances

     #   Z          #   Z                                           value/Å
     1  40 Zr       2  17 Cl                                      2.2358252
     1  40 Zr       3  17 Cl                                      2.2686010 (max)
     1  40 Zr       4   7 N                                       1.9910970
     1  40 Zr      17   6 C                                       2.0590353
    17   6 C       18   6 C                                       1.5065809
    18   6 C       19   6 C                                       1.4904023 (min)
    17   6 C       21   6 C                                       1.4935815

 * 4 distinct bonds (by element types)

   Z      Z             #   av. dist./Å        max./Å        min./Å
   6 C    6 C           3     1.4968549     1.5065809     1.4904023
   6 C   40 Zr          1     2.0590353     2.0590353     2.0590353
   7 N   40 Zr          1     1.9910970     1.9910970     1.9910970
  17 Cl  40 Zr          2     2.2522131     2.2686010     2.2358252


optimized geometry written to: xtbopt.xyz


           -------------------------------------------------
          | TOTAL ENERGY              -56.599924220736 Eh   |
          | GRADIENT NORM               0.053903750452 Eh/α |
          | HOMO-LUMO GAP               0.080188242179 eV   |
           -------------------------------------------------

------------------------------------------------------------------------
 * finished run on 2026/03/05 at 12:14:04.877     
------------------------------------------------------------------------
 total:
 * wall-time:     0 d,  0 h,  0 min,  1.971 sec
 *  cpu-time:     0 d,  0 h,  0 min,  2.312 sec
 * ratio c/w:     1.173 speedup
 SCF:
 * wall-time:     0 d,  0 h,  0 min,  0.293 sec
 *  cpu-time:     0 d,  0 h,  0 min,  0.281 sec
 * ratio c/w:     0.960 speedup
 ANC optimizer:
 * wall-time:     0 d,  0 h,  0 min,  1.529 sec
 *  cpu-time:     0 d,  0 h,  0 min,  1.938 sec
 * ratio c/w:     1.267 speedup

