      -----------------------------------------------------------      
     |                   =====================                   |     
     |                           x T B                           |     
     |                   =====================                   |     
     |                         S. Grimme                         |     
     |          Mulliken Center for Theoretical Chemistry        |     
     |                    University of Bonn                     |     
      -----------------------------------------------------------      

   * xtb version 6.7.1 (edcfbbe) compiled by 'VssAdministrator@runnervmowedg' on 2025-09-04

   xtb is free software: you can redistribute it and/or modify it under
   the terms of the GNU Lesser General Public License as published by
   the Free Software Foundation, either version 3 of the License, or
   (at your option) any later version.
   
   xtb is distributed in the hope that it will be useful,
   but WITHOUT ANY WARRANTY; without even the implied warranty of
   MERCHANTABILITY or FITNESS FOR A PARTICULAR PURPOSE.  See the
   GNU Lesser General Public License for more details.
   
   Cite this work as:
   * C. Bannwarth, E. Caldeweyher, S. Ehlert, A. Hansen, P. Pracht,
     J. Seibert, S. Spicher, S. Grimme, WIREs Comput. Mol. Sci., 2020, 11,
     e01493. DOI: 10.1002/wcms.1493
   
   for GFN2-xTB:
   * C. Bannwarth, S. Ehlert and S. Grimme., J. Chem. Theory Comput., 2019,
     15, 1652-1671. DOI: 10.1021/acs.jctc.8b01176
   for GFN1-xTB:
   * S. Grimme, C. Bannwarth, P. Shushkov, J. Chem. Theory Comput., 2017,
     13, 1989-2009. DOI: 10.1021/acs.jctc.7b00118
   for GFN0-xTB:
   * P. Pracht, E. Caldeweyher, S. Ehlert, S. Grimme, ChemRxiv, 2019, preprint.
     DOI: 10.26434/chemrxiv.8326202.v1
   for GFN-FF:
   * S. Spicher and S. Grimme, Angew. Chem. Int. Ed., 2020, 59, 15665-15673.
     DOI: 10.1002/anie.202004239
   
   for ALPB and GBSA implicit solvation:
   * S. Ehlert, M. Stahn, S. Spicher, S. Grimme, J. Chem. Theory Comput.,
     2021, 17, 4250-4261. DOI: 10.1021/acs.jctc.1c00471
   
   for ddCOSMO and CPCM-X implicit solvation:
   * M. Stahn, S. Ehlert, S. Grimme, J. Phys. Chem. A,
     2023, XX, XXXX-XXXX. DOI: 10.1021/acs.jpca.3c04382
   
   for DFT-D4:
   * E. Caldeweyher, C. Bannwarth and S. Grimme, J. Chem. Phys., 2017,
     147, 034112. DOI: 10.1063/1.4993215
   * E. Caldeweyher, S. Ehlert, A. Hansen, H. Neugebauer, S. Spicher,
     C. Bannwarth and S. Grimme, J. Chem. Phys., 2019, 150, 154122.
     DOI: 10.1063/1.5090222
   * E. Caldeweyher, J.-M. Mewes, S. Ehlert and S. Grimme, Phys. Chem. Chem. Phys.
     2020, 22, 8499-8512. DOI: 10.1039/D0CP00502A
   
   for sTDA-xTB:
   * S. Grimme and C. Bannwarth, J. Chem. Phys., 2016, 145, 054103.
     DOI: 10.1063/1.4959605
   
   in the mass-spec context:
   * V. Asgeirsson, C. Bauer and S. Grimme, Chem. Sci., 2017, 8, 4879.
     DOI: 10.1039/c7sc00601b
   * J. Koopman and S. Grimme, ACS Omega 2019, 4, 12, 15120-15133.
     DOI: 10.1021/acsomega.9b02011
   
   for metadynamics refer to:
   * S. Grimme, J. Chem. Theory Comput., 2019, 155, 2847-2862
     DOI: 10.1021/acs.jctc.9b00143
   
   for SPH calculations refer to:
   * S. Spicher and S. Grimme, J. Chem. Theory Comput., 2021, 17, 1701-1714
     DOI: 10.1021/acs.jctc.0c01306
   
   for ONIOM refer to:
   * C. Plett, A. Katbashev, S. Ehlert, S. Grimme, M. Bursch,
     Phys. Chem. Chem. Phys., 2023, 25, 17860-17868. DOI: 10.1039/D3CP02178E
   
   for DIPRO refer to:
   * J. Kohn, N. Gildemeister, S. Grimme, D. Fazzi, A. Hansen,
     J. Chem. Phys., 2023, just accepted.
   
   for PTB refer to:
   * S. Grimme, M. Mueller, A. Hansen, J. Chem. Phys., 2023, 158, 124111.
     DOI: 10.1063/5.0137838
   
   with help from (in alphabetical order)
   P. Atkinson, C. Bannwarth, F. Bohle, G. Brandenburg, E. Caldeweyher
   M. Checinski, S. Dohm, S. Ehlert, S. Ehrlich, I. Gerasimov, C. Hölzer
   A. Katbashev, J. Kohn, J. Koopman, C. Lavigne, S. Lehtola, F. März, M. Müller,
   F. Musil, H. Neugebauer, J. Pisarek, C. Plett, P. Pracht, F. Pultar,
   J. Seibert, P. Shushkov, S. Spicher, M. Stahn, M. Steiner, T. Strunk,
   J. Stückrath, T. Rose, and J. Unsleber
   
 * started run on 2026/03/05 at 12:14:08.018     
   ID    Z sym.   atoms
    1   40 Zr     1
    2   17 Cl     2, 3
    3    7 N      4
    4    6 C      5-21
    5    1 H      22-36

           -------------------------------------------------
          |                Calculation Setup                |
           -------------------------------------------------

          program call               : xtb qc_relax_5.xyz --opt --chrg 0 --uhf 0 --cycles 5 --input xcontrol
          coordinate file            : qc_relax_5.xyz
          omp threads                :                    12


molecular fragmentation (1/2 indicates fragments):
111111111112221211111222222222222222
# atoms in fragment 1/2:    17    19
 fragment masses (1/2) :      332.28       63.16
CMA distance (Bohr)    :   6.011
constraining FC (au)   :  1.0000

           -------------------------------------------------
          |                 G F N 2 - x T B                 |
           -------------------------------------------------

        Reference                      10.1021/acs.jctc.8b01176
      * Hamiltonian:
        H0-scaling (s, p, d)           1.850000    2.230000    2.230000
        zeta-weighting                 0.500000
      * Dispersion:
        s8                             2.700000
        a1                             0.520000
        a2                             5.000000
        s9                             5.000000
      * Repulsion:
        kExp                           1.500000    1.000000
        rExp                           1.000000
      * Coulomb:
        alpha                          2.000000
        third order                    shell-resolved
        anisotropic                    true
        a3                             3.000000
        a5                             4.000000
        cn-shift                       1.200000
        cn-exp                         4.000000
        max-rad                        5.000000

q/qsh data taken from xtbrestart
CAMM data taken from xtbrestart

          ...................................................
          :                      SETUP                      :
          :.................................................:
          :  # basis functions                 117          :
          :  # atomic orbitals                 114          :
          :  # shells                           60          :
          :  # electrons                       106          :
          :  max. iterations                   250          :
          :  Hamiltonian                  GFN2-xTB          :
          :  restarted?                       true          :
          :  GBSA solvation                  false          :
          :  PC potential                    false          :
          :  electronic temp.          300.0000000     K    :
          :  accuracy                    1.0000000          :
          :  -> integral cutoff          0.2500000E+02      :
          :  -> integral neglect         0.1000000E-07      :
          :  -> SCF convergence          0.1000000E-05 Eh   :
          :  -> wf. convergence          0.1000000E-03 e    :
          :  Broyden damping             0.4000000          :
          :  net charge                          0          :
          :  unpaired electrons                  0          :
          ...................................................

 iter      E             dE          RMSdq      gap      omega  full diag
   1    -55.1322696 -0.551323E+02  0.641E-01    0.09       0.0  T
   2    -54.6965638  0.435706E+00  0.222E+00    0.49       1.0  T
   3    -55.1240772 -0.427513E+00  0.630E-01    0.09       1.0  T
   4    -55.1400609 -0.159836E-01  0.414E-01    0.04       1.0  T
   5    -55.1394698  0.591109E-03  0.371E-01    0.07       1.0  T
   6    -55.1433625 -0.389273E-02  0.245E-01    0.04       1.0  T
   7    -55.1350525  0.831002E-02  0.386E-01    0.06       1.0  T
   8    -55.1475169 -0.124644E-01  0.154E-01    0.05       1.0  T
   9    -55.1464256  0.109128E-02  0.173E-01    0.05       1.0  T
  10    -55.1491347 -0.270916E-02  0.608E-02    0.05       1.0  T
  11    -55.1493349 -0.200142E-03  0.285E-02    0.05       1.0  T
  12    -55.1493575 -0.226248E-04  0.239E-02    0.05       1.0  T
  13    -55.1493750 -0.174835E-04  0.164E-02    0.05       1.0  T
  14    -55.1493727  0.232362E-05  0.159E-02    0.05       1.0  T
  15    -55.1493861 -0.133890E-04  0.852E-03    0.05       2.0  T
  16    -55.1493895 -0.346124E-05  0.538E-03    0.05       3.1  T
  17    -55.1493899 -0.342335E-06  0.468E-03    0.05       3.6  T
  18    -55.1493905 -0.671627E-06  0.274E-03    0.05       6.1  T
  19    -55.1493906 -0.416111E-07  0.228E-03    0.05       7.3  T
  20    -55.1493905  0.405539E-07  0.214E-03    0.05       7.8  T
  21    -55.1493906 -0.802630E-07  0.159E-03    0.05      10.5  T
  22    -55.1493908 -0.159508E-06  0.104E-03    0.05      16.1  T
  23    -55.1493907  0.305606E-07  0.106E-03    0.05      15.7  T
  24    -55.1493908 -0.818685E-07  0.330E-04    0.05      50.4  T
  25    -55.1493908 -0.250066E-08  0.232E-04    0.05      71.9  T

   *** convergence criteria satisfied after 25 iterations ***

         #    Occupation            Energy/Eh            Energy/eV
      -------------------------------------------------------------
         1        2.0000           -1.1105746             -30.2203
       ...           ...                  ...                  ...
        47        2.0000           -0.4012456             -10.9184
        48        2.0000           -0.3969024             -10.8003
        49        2.0000           -0.3922480             -10.6736
        50        2.0000           -0.3896966             -10.6042
        51        2.0000           -0.3799503             -10.3390
        52        2.0000           -0.3763700             -10.2415
        53        1.4533           -0.3649413              -9.9306 (HOMO)
        54        0.5467           -0.3630836              -9.8800 (LUMO)
        55        0.0000           -0.3530783              -9.6078
        56                         -0.3406252              -9.2689
        57                         -0.3386367              -9.2148
        58                         -0.3337797              -9.0826
       ...                                ...                  ...
       114                          3.1365625              85.3502
      -------------------------------------------------------------
                  HL-Gap            0.0018577 Eh            0.0506 eV
             Fermi-level           -0.3640125 Eh           -9.9053 eV

 SCC (total)                   0 d,  0 h,  0 min,  0.164 sec
 SCC setup                      ...        0 min,  0.000 sec (  0.266%)
 Dispersion                     ...        0 min,  0.001 sec (  0.474%)
 classical contributions        ...        0 min,  0.000 sec (  0.106%)
 integral evaluation            ...        0 min,  0.015 sec (  8.879%)
 iterations                     ...        0 min,  0.131 sec ( 79.940%)
 molecular gradient             ...        0 min,  0.017 sec ( 10.103%)
 printout                       ...        0 min,  0.000 sec (  0.193%)

         :::::::::::::::::::::::::::::::::::::::::::::::::::::
         ::                     SUMMARY                     ::
         :::::::::::::::::::::::::::::::::::::::::::::::::::::
         :: total energy             -54.978875788434 Eh    ::
         :: gradient norm              0.174714000350 Eh/a0 ::
         :: HOMO-LUMO gap              0.050550567754 eV    ::
         ::.................................................::
         :: SCC energy               -55.147246746837 Eh    ::
         :: -> isotropic ES           -0.045678393401 Eh    ::
         :: -> anisotropic ES         -0.009666611674 Eh    ::
         :: -> anisotropic XC          0.029139637242 Eh    ::
         :: -> dispersion             -0.061999545580 Eh    ::
         :: repulsion energy           0.168370958403 Eh    ::
         :: add. restraining           0.000000000000 Eh    ::
         :: total charge              -0.000000000000 e     ::
         :::::::::::::::::::::::::::::::::::::::::::::::::::::

      ----------------------------------------------------------- 
     |                   =====================                   |
     |                        A N C O P T                        |
     |                   =====================                   |
     |               Approximate Normal Coordinate               |
     |                Rational Function Optimizer                |
      ----------------------------------------------------------- 
      ----------------------------------------------------------- 
     |                   =====================                   |
     |                        A N C O P T                        |
     |                   =====================                   |
     |               Approximate Normal Coordinate               |
     |                Rational Function Optimizer                |
      ----------------------------------------------------------- 

          ...................................................
          :                      SETUP                      :
          :.................................................:
          :   optimization level            normal          :
          :   max. optcycles                     5          :
          :   ANC micro-cycles                   5          :
          :   degrees of freedom               102          :
          :.................................................:
          :   RF solver                   davidson          :
          :   write xtbopt.log                true          :
          :   linear?                        false          :
          :   energy convergence         0.5000000E-05 Eh   :
          :   grad. convergence          0.1000000E-02 Eh/α :
          :   maxmium RF displ.          1.0000000          :
          :   Hlow (freq-cutoff)         0.1000000E-01      :
          :   Hmax (freq-cutoff)         5.0000000          :
          :   S6 in model hess.         20.0000000          :
          ...................................................

generating ANC from exact Hessian ...
Using Lindh-Hessian (1995)
 Shifting diagonal of input Hessian by    1.3724708870884311E-002
 Lowest  eigenvalues of input Hessian
    0.010000    0.012740    0.013155    0.000000    0.000000    0.000000
    0.000000    0.000000    0.000000    0.013812    0.013842    0.013924
    0.014098    0.014161    0.014286    0.014380    0.014479    0.014575
 Highest eigenvalues
    1.557914    1.751313    1.766271    1.913107    2.309380    2.405215


........................................................................
.............................. CYCLE    1 ..............................
........................................................................

 iter      E             dE          RMSdq      gap      omega  full diag
   1    -55.1493908 -0.551494E+02  0.172E-04    0.05       0.0  T
   2    -55.1493906  0.253591E-06  0.171E-03    0.05       9.7  T
   3    -55.1493908 -0.251719E-06  0.227E-04    0.05      73.5  T
   4    -55.1493908 -0.251091E-08  0.133E-04    0.05     125.3  T
     SCC iter.                  ...        0 min,  0.018 sec
     gradient                   ...        0 min,  0.018 sec
 * total energy  :   -54.9788758 Eh     change       -0.1984397E-08 Eh
   gradient norm :     0.1747139 Eh/α   predicted     0.0000000E+00 (-100.00%)
   displ. norm   :     0.1675733 α      lambda       -0.1973483E-01
   maximum displ.:     0.0502075 α      in ANC's #101, #86, #84, ...

........................................................................
.............................. CYCLE    2 ..............................
........................................................................

 iter      E             dE          RMSdq      gap      omega  full diag
   1    -55.1252290 -0.551252E+02  0.299E-01    0.05       0.0  T
   2    -54.9652225  0.160006E+00  0.123E+00    0.27       1.0  T
   3    -55.1137260 -0.148503E+00  0.428E-01    0.06       1.0  T
   4    -55.1274326 -0.137066E-01  0.198E-01    0.06       1.0  T
   5    -55.1269820  0.450616E-03  0.202E-01    0.04       1.0  T
   6    -55.1283855 -0.140346E-02  0.151E-01    0.06       1.0  T
   7    -55.1288784 -0.492947E-03  0.976E-02    0.05       1.0  T
   8    -55.1285759  0.302529E-03  0.122E-01    0.06       1.0  T
   9    -55.1295533 -0.977373E-03  0.492E-02    0.05       1.0  T
  10    -55.1297036 -0.150311E-03  0.185E-02    0.05       1.0  T
  11    -55.1297131 -0.951898E-05  0.137E-02    0.05       1.2  T
  12    -55.1297147 -0.164400E-05  0.113E-02    0.05       1.5  T
  13    -55.1297105  0.421683E-05  0.109E-02    0.05       1.5  T
  14    -55.1297121 -0.154717E-05  0.102E-02    0.05       1.6  T
  15    -55.1297179 -0.578296E-05  0.537E-03    0.05       3.1  T
  16    -55.1297185 -0.690796E-06  0.424E-03    0.05       3.9  T
  17    -55.1297189 -0.395158E-06  0.362E-03    0.05       4.6  T
  18    -55.1297196 -0.637619E-06  0.195E-03    0.05       8.6  T
  19    -55.1297196 -0.378864E-07  0.158E-03    0.05      10.5  T
  20    -55.1297197 -0.695642E-07  0.125E-03    0.05      13.3  T
  21    -55.1297197 -0.497127E-07  0.799E-04    0.05      20.8  T
  22    -55.1297197  0.229822E-07  0.767E-04    0.05      21.7  T
     SCC iter.                  ...        0 min,  0.095 sec
     gradient                   ...        0 min,  0.017 sec
 * total energy  :   -54.9701888 Eh     change        0.8686971E-02 Eh
   gradient norm :     0.0272932 Eh/α   predicted    -0.1014537E-01 (-216.79%)
   displ. norm   :     0.2013524 α      lambda       -0.1597500E-02
   maximum displ.:     0.0843575 α      in ANC's #15, #2, #21, ...

........................................................................
.............................. CYCLE    3 ..............................
........................................................................

 iter      E             dE          RMSdq      gap      omega  full diag
   1    -55.1169324 -0.551169E+02  0.155E-01    0.05       0.0  T
   2    -55.1152759  0.165651E-02  0.183E-01    0.06       1.0  T
   3    -55.0953882  0.198877E-01  0.529E-01    0.05       1.0  T
   4    -55.1106599 -0.152718E-01  0.261E-01    0.06       1.0  T
   5    -55.1136264 -0.296650E-02  0.187E-01    0.06       1.0  T
   6    -55.1165726 -0.294613E-02  0.857E-02    0.04       1.0  T
   7    -55.1169447 -0.372134E-03  0.530E-02    0.05       1.0  T
   8    -55.1170851 -0.140354E-03  0.282E-02    0.05       1.0  T
   9    -55.1171256 -0.405438E-04  0.203E-02    0.05       1.0  T
  10    -55.1171416 -0.160208E-04  0.159E-02    0.05       1.0  T
  11    -55.1171390  0.263482E-05  0.156E-02    0.05       1.1  T
  12    -55.1171566 -0.176281E-04  0.591E-03    0.05       2.8  T
  13    -55.1171575 -0.916652E-06  0.445E-03    0.05       3.7  T
  14    -55.1171573  0.189831E-06  0.438E-03    0.05       3.8  T
  15    -55.1171583 -0.976649E-06  0.239E-03    0.05       7.0  T
  16    -55.1171584 -0.105731E-06  0.186E-03    0.05       8.9  T
  17    -55.1171584 -0.277394E-08  0.162E-03    0.05      10.3  T
  18    -55.1171584 -0.751760E-08  0.146E-03    0.05      11.4  T
  19    -55.1171586 -0.115015E-06  0.833E-04    0.05      20.0  T
  20    -55.1171586 -0.714777E-08  0.668E-04    0.05      25.0  T
     SCC iter.                  ...        0 min,  0.083 sec
     gradient                   ...        0 min,  0.015 sec
 * total energy  :   -54.9582320 Eh     change        0.1195686E-01 Eh
   gradient norm :     0.0108385 Eh/α   predicted    -0.8381735E-03 (-107.01%)
   displ. norm   :     0.4639958 α      lambda       -0.1996305E-02
   maximum displ.:     0.2012452 α      in ANC's #15, #2, #21, ...

........................................................................
.............................. CYCLE    4 ..............................
........................................................................

 iter      E             dE          RMSdq      gap      omega  full diag
   1    -55.0953063 -0.550953E+02  0.347E-01    0.04       0.0  T
   2    -55.0854698  0.983653E-02  0.425E-01    0.08       1.0  T
   3    -55.0588795  0.265902E-01  0.753E-01    0.03       1.0  T
   4    -55.0186038  0.402757E-01  0.844E-01    0.15       1.0  T
   5    -55.0752344 -0.566306E-01  0.475E-01    0.06       1.0  T
   6    -55.0940774 -0.188430E-01  0.160E-01    0.04       1.0  T
   7    -55.0948249 -0.747566E-03  0.136E-01    0.05       1.0  T
   8    -55.0960759 -0.125099E-02  0.772E-02    0.05       1.0  T
   9    -55.0960108  0.650648E-04  0.770E-02    0.05       1.0  T
  10    -55.0959579  0.529275E-04  0.761E-02    0.05       1.0  T
  11    -55.0962579 -0.299955E-03  0.465E-02    0.05       1.0  T
  12    -55.0964457 -0.187836E-03  0.119E-02    0.04       1.4  T
  13    -55.0964413  0.444433E-05  0.145E-02    0.04       1.1  T
  14    -55.0964368  0.446863E-05  0.151E-02    0.04       1.1  T
  15    -55.0964472 -0.103671E-04  0.797E-03    0.05       2.1  T
  16    -55.0964486 -0.144517E-05  0.700E-03    0.05       2.4  T
  17    -55.0964501 -0.154834E-05  0.513E-03    0.05       3.2  T
  18    -55.0964506 -0.403535E-06  0.411E-03    0.05       4.1  T
  19    -55.0964509 -0.325579E-06  0.269E-03    0.05       6.2  T
  20    -55.0964507  0.136312E-06  0.259E-03    0.05       6.4  T
  21    -55.0964512 -0.435493E-06  0.111E-03    0.05      15.0  T
  22    -55.0964511  0.290121E-07  0.102E-03    0.05      16.4  T
  23    -55.0964512 -0.467927E-07  0.768E-04    0.05      21.7  T
  24    -55.0964512 -0.354938E-07  0.307E-04    0.05      54.2  T
     SCC iter.                  ...        0 min,  0.083 sec
     gradient                   ...        0 min,  0.020 sec
 * total energy  :   -54.9372738 Eh     change        0.2095819E-01 Eh
   gradient norm :     0.0201221 Eh/α   predicted    -0.1213231E-02 (-105.79%)
   displ. norm   :     0.6677767 α      lambda       -0.2275126E-02
   maximum displ.:     0.2953283 α      in ANC's #15, #2, #21, ...

........................................................................
.............................. CYCLE    5 ..............................
........................................................................

 iter      E             dE          RMSdq      gap      omega  full diag
   1    -55.0685777 -0.550686E+02  0.532E-01    0.03       0.0  T
   2    -55.0286024  0.399753E-01  0.731E-01    0.08       1.0  T
   3    -54.9559077  0.726947E-01  0.104E+00    0.16       1.0  T
   4    -54.9345086  0.213991E-01  0.129E+00    0.11       1.0  T
   5    -55.0263020 -0.917934E-01  0.738E-01    0.10       1.0  T
   6    -55.0689689 -0.426669E-01  0.174E-01    0.03       1.0  T
   7    -55.0684695  0.499349E-03  0.184E-01    0.05       1.0  T
   8    -55.0697213 -0.125174E-02  0.161E-01    0.05       1.0  T
   9    -55.0694780  0.243277E-03  0.158E-01    0.05       1.0  T
  10    -55.0708059 -0.132794E-02  0.100E-01    0.05       1.0  T
  11    -55.0715632 -0.757283E-03  0.317E-02    0.04       1.0  T
  12    -55.0716107 -0.474700E-04  0.212E-02    0.04       1.0  T
  13    -55.0716207 -0.100425E-04  0.172E-02    0.04       1.0  T
  14    -55.0716244 -0.369637E-05  0.145E-02    0.04       1.1  T
  15    -55.0716311 -0.673164E-05  0.930E-03    0.04       1.8  T
  16    -55.0716330 -0.185027E-05  0.787E-03    0.04       2.1  T
  17    -55.0716332 -0.255781E-06  0.714E-03    0.04       2.3  T
  18    -55.0716341 -0.879593E-06  0.562E-03    0.04       3.0  T
  19    -55.0716340  0.172604E-06  0.559E-03    0.04       3.0  T
  20    -55.0716337  0.216909E-06  0.532E-03    0.04       3.1  T
  21    -55.0716355 -0.179476E-05  0.279E-03    0.04       6.0  T
  22    -55.0716359 -0.321437E-06  0.185E-03    0.04       9.0  T
  23    -55.0716361 -0.215538E-06  0.116E-03    0.04      14.4  T
  24    -55.0716361 -0.661513E-07  0.497E-04    0.04      33.6  T
  25    -55.0716361 -0.839443E-08  0.327E-04    0.04      50.9  T
     SCC iter.                  ...        0 min,  0.135 sec
     gradient                   ...        0 min,  0.015 sec
 * total energy  :   -54.9116126 Eh     change        0.2566117E-01 Eh
   gradient norm :     0.0313988 Eh/α   predicted    -0.1644678E-02 (-106.41%)
   displ. norm   :     0.7815340 α      lambda       -0.2934990E-02
   maximum displ.:     0.3522183 α      in ANC's #15, #2, #21, ...

   *** FAILED TO CONVERGE GEOMETRY OPTIMIZATION IN 5 ITERATIONS ***


 ANCopt (total)                0 d,  0 h,  0 min,  0.553 sec
 optimizer setup                ...        0 min,  0.000 sec (  0.086%)
 model hessian                  ...        0 min,  0.017 sec (  3.112%)
 ANC generation                 ...        0 min,  0.002 sec (  0.290%)
 coordinate transformation      ...        0 min,  0.000 sec (  0.022%)
 single point calculation       ...        0 min,  0.529 sec ( 95.573%)
 optimization log               ...        0 min,  0.002 sec (  0.437%)
 hessian update                 ...        0 min,  0.001 sec (  0.099%)
 rational function              ...        0 min,  0.002 sec (  0.280%)

================
 final structure:
================
36
 xtb: 6.7.1 (edcfbbe)
Zr          -0.19579903521882        0.55673269286486       -0.00421635410425
Cl          -0.23808404772099        0.24068130919626       -2.24626277344865
Cl           2.16873698008543        0.46832058530302       -0.15404851644445
N            0.09096526161421        0.51551131385487        2.00836396043194
C           -2.08397850226141        0.29933227998549        1.70308522903332
C           -2.54574772921783        2.03897224101766        2.59298780749841
C           -1.36268259600829        1.97596557591563        1.04259758274205
C           -2.33463196412446        2.04797368294839       -0.27607383154386
C           -1.39059654877863        2.75502669046302       -1.42096712387937
C            0.06498577858791        3.20253831628272       -0.76988330314614
C           -0.30658398303400        3.23000041611958        0.85046385659328
C           -2.22457636952847       -0.50663789486109        3.57656678876114
C           -0.62559230891459       -1.21873856991430        4.60435230029223
C            0.28248374794646       -2.54250723255709        3.32862197745292
C            0.68754675245807       -1.34486184290676        1.75684091028356
C            1.83301110725371       -2.44992975284018        0.53753208598228
C            0.28767452726254       -1.39185495384416       -0.04999917737233
C           -1.38031471786363       -1.30961194939197       -0.59028019945905
C           -2.22887002294817       -1.37861886531439        0.86230116792138
C           -1.07336729335026       -2.61810210378203        1.02661938982322
C           -0.08796888046552       -2.89763080460717       -0.35018531867840
H           -0.93004049436629        2.25206013228739        2.96542431304087
H           -3.70464672000362        1.00459888126417        2.40674736295121
H           -3.25126196858683        0.50026940153725       -0.68528238782493
H           -1.02520726001385        1.99601797075080       -3.02904174261951
H            1.71331043573538        3.03991205942879       -1.44856009627062
H            0.98113609996980        1.91686617312583        1.52892399176341
H           -3.70684599175240        0.38577506071250        4.45080671927170
H           -1.37391021405340       -2.56811112682955        5.94031071951246
H            1.44837921199647       -4.04776649367279        3.69903223735426
H            0.91983634996833       -2.97586439911451        1.86452968484996
H            2.89177415832848       -1.34408516165784        0.00613509430636
H           -1.69885463147049       -1.84464655913016       -2.23630853890084
H           -2.57578443095534       -1.49952095410511        2.43143319710841
H           -0.94153601713012       -3.40383204193167        2.59718983765287
H           -0.44639968343833       -3.68653307659849       -2.00156585093491

 Bond Distances (Angstroems)
 ---------------------------
Zr1-Cl2=2.2646       Zr1-Cl3=2.3709       Zr1-N4=2.0333        Zr1-C5=2.5586        Zr1-C7=2.1146        Zr1-C8=2.6215        
Zr1-C9=2.8753        Zr1-C10=2.7667       Zr1-C11=2.8088       Zr1-C15=2.7382       Zr1-C17=2.0082       Zr1-C18=2.2869       
Zr1-C19=2.9377       Zr1-H27=2.3634       Cl2-Zr1=2.2646       Cl3-Zr1=2.3709       N4-Zr1=2.0333        C5-Zr1=2.5586        
C5-C7=1.9410         C5-C19=1.8824        C7-Zr1=2.1146        C7-C5=1.9410         C7-C8=1.6397         C7-C11=1.6507        
C8-Zr1=2.6215        C8-C7=1.6397         C8-C9=1.6437         C9-Zr1=2.8753        C9-C8=1.6437         C9-C10=1.6562        
C10-Zr1=2.7667       C10-C9=1.6562        C10-C11=1.6626       C11-Zr1=2.8088       C11-C7=1.6507        C11-C10=1.6626       
C15-Zr1=2.7382       C15-C17=1.8512       C17-Zr1=2.0082       C17-C15=1.8512       C17-C18=1.7552       C17-C21=1.5807       
C18-Zr1=2.2869       C18-C17=1.7552       C18-C19=1.6837       C19-Zr1=2.9377       C19-C5=1.8824        C19-C18=1.6837       
C19-C20=1.7025       C20-C19=1.7025       C20-C21=1.7160       C21-C17=1.5807       C21-C20=1.7160       H27-Zr1=2.3634       
 C  C  Rav=1.7204 sigma=0.1035  Rmin=1.5807  Rmax=1.9410    13
 Zr H  Rav=2.3634 sigma=0.0000  Rmin=2.3634  Rmax=2.3634     1
 Zr C  Rav=2.5716 sigma=0.3096  Rmin=2.0082  Rmax=2.9377    10
 Zr N  Rav=2.0333 sigma=0.0000  Rmin=2.0333  Rmax=2.0333     1
 Zr Cl Rav=2.3178 sigma=0.0532  Rmin=2.2646  Rmax=2.3709     2

 selected bond angles (degree)
 --------------------
Cl3-Zr1-Cl2= 87.18             N4-Zr1-Cl2=168.45              N4-Zr1-Cl3= 85.48              C5-Zr1-Cl2=129.26              
C5-Zr1-Cl3=140.75              C5-Zr1-N4= 56.05               C7-Zr1-Cl2=124.99              C7-Zr1-Cl3=127.35              
C7-Zr1-N4= 66.51               C7-Zr1-C5= 47.93               C8-Zr1-Cl2= 87.79              C8-Zr1-Cl3=145.93              
C8-Zr1-N4=103.25               C8-Zr1-C5= 61.60               C8-Zr1-C7= 38.68               C9-Zr1-Cl2= 67.11              
C9-Zr1-Cl3=114.32              C9-Zr1-N4=124.18               C9-Zr1-C5= 95.68               C9-Zr1-C7= 60.10               
C9-Zr1-C8= 34.41               C10-Zr1-Cl2= 82.02             C10-Zr1-Cl3= 85.65             C10-Zr1-N4=106.26              
C10-Zr1-C5=110.51              C10-Zr1-C7= 63.08              C10-Zr1-C8= 60.28              C10-Zr1-C9= 34.07              
C11-Zr1-Cl2=115.68             C11-Zr1-Cl3= 95.40             C11-Zr1-N4= 73.96              C11-Zr1-C5= 82.16              
C11-Zr1-C7= 35.79              C11-Zr1-C8= 57.18              C11-Zr1-C9= 53.55              C11-Zr1-C10= 34.69             
C15-Zr1-Cl2=123.08             C15-Zr1-Cl3= 72.12             C15-Zr1-N4= 45.88              C15-Zr1-C5= 74.87              
C15-Zr1-C7=109.01              C15-Zr1-C8=136.46              C15-Zr1-C9=169.09              C15-Zr1-C10=144.26             
C15-Zr1-C11=118.55             C17-Zr1-Cl2= 81.17             C17-Zr1-Cl3= 73.88             C17-Zr1-N4= 88.22              
C17-Zr1-C5= 95.47              C17-Zr1-C7=142.69              C17-Zr1-C8=138.25              C17-Zr1-C9=146.17              
C17-Zr1-C10=154.02             C17-Zr1-C11=160.04             C17-Zr1-C15= 42.54             C18-Zr1-Cl2= 67.83             
C18-Zr1-Cl3=118.03             C18-Zr1-N4=108.07              C18-Zr1-C5= 72.94              C18-Zr1-C7=112.88              
C18-Zr1-C8= 90.86              C18-Zr1-C9=106.41              C18-Zr1-C10=139.32             C18-Zr1-C11=146.54             
C18-Zr1-C15= 76.42             C18-Zr1-C17= 47.70             C19-Zr1-Cl2=100.79             C19-Zr1-Cl3=133.18             
C19-Zr1-N4= 78.01              C19-Zr1-C5= 39.30              C19-Zr1-C7= 85.08              C19-Zr1-C8= 80.83              
C19-Zr1-C9=111.19              C19-Zr1-C10=140.98             C19-Zr1-C11=120.66             C19-Zr1-C15= 64.91             
C19-Zr1-C17= 62.23             C19-Zr1-C18= 34.86             H27-Zr1-Cl2=137.04             H27-Zr1-Cl3= 64.27             
H27-Zr1-N4= 45.52              H27-Zr1-C5= 89.57              H27-Zr1-C7= 64.37              H27-Zr1-C8= 98.41              
H27-Zr1-C9= 94.97              H27-Zr1-C10= 65.31             H27-Zr1-C11= 43.49             H27-Zr1-C15= 79.74             
H27-Zr1-C17=116.96             H27-Zr1-C18=153.36             H27-Zr1-C19=122.17             C7-C5-Zr1= 53.97               
C19-C5-Zr1= 81.28              C19-C5-C7=130.28               C5-C7-Zr1= 78.10               C8-C7-Zr1= 87.62               
C8-C7-C5= 95.24                C11-C7-Zr1= 95.69              C11-C7-C5=159.00               C11-C7-C8=104.61               
C7-C8-Zr1= 53.70               C9-C8-Zr1= 81.28               C9-C8-C7=103.80                C8-C9-Zr1= 64.32               
C10-C9-Zr1= 69.37              C10-C9-C8=110.31               C9-C10-Zr1= 76.56              C11-C10-Zr1= 74.04             
C11-C10-C9=101.02              

 selected dihedral angles (degree)
 ---------------------------------
C7-C5-Zr1-Cl2=254.93          C7-C5-Zr1-Cl3=100.77          C7-C5-Zr1-N4= 87.73           C7-C5-Zr1-C8=315.03           
C7-C5-Zr1-C9=319.88           C7-C5-Zr1-C10=351.50          C7-C5-Zr1-C11= 11.83          C7-C5-Zr1-C15=134.31          
C7-C5-Zr1-C17=171.87          C7-C5-Zr1-C18=214.43          C7-C5-Zr1-C19=203.02          C7-C5-Zr1-H27= 54.83          
C19-C5-Zr1-Cl2= 51.91         C19-C5-Zr1-Cl3=257.75         C19-C5-Zr1-N4=244.71          C19-C5-Zr1-C7=156.98          
C19-C5-Zr1-C8=112.01          C19-C5-Zr1-C9=116.86          C19-C5-Zr1-C10=148.48         C19-C5-Zr1-C11=168.81         
C19-C5-Zr1-C15=291.29         C19-C5-Zr1-C17=328.86         C19-C5-Zr1-C18= 11.42         C19-C5-Zr1-H27=211.81         
C5-C7-Zr1-Cl2=114.13          C5-C7-Zr1-Cl3=231.43          C5-C7-Zr1-N4=295.34           C5-C7-Zr1-C8= 95.86           
C5-C7-Zr1-C9=132.30           C5-C7-Zr1-C10=171.07          C5-C7-Zr1-C11=200.32          C5-C7-Zr1-C15=313.06          
C5-C7-Zr1-C17=346.58          C5-C7-Zr1-C18= 35.93          C5-C7-Zr1-C19= 14.39          C5-C7-Zr1-H27=245.04          
C8-C7-Zr1-Cl2= 18.26          C8-C7-Zr1-Cl3=135.57          C8-C7-Zr1-N4=199.48           C8-C7-Zr1-C5=264.14           
C8-C7-Zr1-C9= 36.43           C8-C7-Zr1-C10= 75.20          C8-C7-Zr1-C11=104.45          C8-C7-Zr1-C15=217.20          
C8-C7-Zr1-C17=250.71          C8-C7-Zr1-C18=300.06          C8-C7-Zr1-C19=278.53          C8-C7-Zr1-H27=149.18          
C11-C7-Zr1-Cl2=273.81         C11-C7-Zr1-Cl3= 31.11         C11-C7-Zr1-N4= 95.02          C11-C7-Zr1-C5=159.68          
C11-C7-Zr1-C8=255.55          C11-C7-Zr1-C9=291.98          C11-C7-Zr1-C10=330.75         C11-C7-Zr1-C15=112.74         
C11-C7-Zr1-C17=146.26         C11-C7-Zr1-C18=195.61         C11-C7-Zr1-C19=174.08         C11-C7-Zr1-H27= 44.73         
C7-C8-Zr1-Cl2=194.89          C7-C8-Zr1-Cl3=276.56          C7-C8-Zr1-N4= 18.31           C7-C8-Zr1-C5= 57.09           
C7-C8-Zr1-C9=245.66           C7-C8-Zr1-C10=276.96          C7-C8-Zr1-C11=317.63          C7-C8-Zr1-C15= 56.08          
C7-C8-Zr1-C17=120.78          C7-C8-Zr1-C18=127.11          C7-C8-Zr1-C19= 93.59          C7-C8-Zr1-H27=332.16          
C9-C8-Zr1-Cl2=309.23          C9-C8-Zr1-Cl3= 30.91          C9-C8-Zr1-N4=132.65           C9-C8-Zr1-C5=171.43           
C9-C8-Zr1-C7=114.34           C9-C8-Zr1-C10= 31.30          C9-C8-Zr1-C11= 71.98          C9-C8-Zr1-C15=170.43          
C9-C8-Zr1-C17=235.12          C9-C8-Zr1-C18=241.45          C9-C8-Zr1-C19=207.93          C9-C8-Zr1-H27= 86.51          
Zr1-C8-C7-C5=282.19           Zr1-C8-C7-C11= 95.27          C9-C8-C7-Zr1=291.98           C9-C8-C7-C5=214.16            
C9-C8-C7-C11= 27.24           C8-C9-Zr1-Cl2=122.84          C8-C9-Zr1-Cl3=198.41          C8-C9-Zr1-N4=300.08           
C8-C9-Zr1-C5=352.43           C8-C9-Zr1-C7=318.94           C8-C9-Zr1-C10=233.65          C8-C9-Zr1-C11=276.55          
C8-C9-Zr1-C15=322.76          C8-C9-Zr1-C17=101.12          C8-C9-Zr1-C18= 66.29          C8-C9-Zr1-C19= 29.73          
C8-C9-Zr1-H27=262.37          C10-C9-Zr1-Cl2=249.19         C10-C9-Zr1-Cl3=324.75         C10-C9-Zr1-N4= 66.43          
C10-C9-Zr1-C5=118.78          C10-C9-Zr1-C7= 85.29          C10-C9-Zr1-C8=126.35          C10-C9-Zr1-C11= 42.90         
C10-C9-Zr1-C15= 89.11         C10-C9-Zr1-C17=227.47         C10-C9-Zr1-C18=192.64         C10-C9-Zr1-C19=156.08         
C10-C9-Zr1-H27= 28.72         Zr1-C9-C8-C7= 49.12           C10-C9-C8-Zr1=306.51          C10-C9-C8-C7=355.63           
C9-C10-Zr1-Cl2= 60.41         C9-C10-Zr1-Cl3=148.17         C9-C10-Zr1-N4=232.17          C9-C10-Zr1-C5=291.37          
C9-C10-Zr1-C7=284.31          C9-C10-Zr1-C8=328.39          C9-C10-Zr1-C11=254.17         C9-C10-Zr1-C15=198.91         
C9-C10-Zr1-C17=110.52         C9-C10-Zr1-C18= 18.78         C9-C10-Zr1-C19=323.10         C9-C10-Zr1-H27=211.79         
C11-C10-Zr1-Cl2=166.24        C11-C10-Zr1-Cl3=254.00        C11-C10-Zr1-N4=338.00         C11-C10-Zr1-C5= 37.20         
C11-C10-Zr1-C7= 30.14         C11-C10-Zr1-C8= 74.22         C11-C10-Zr1-C9=105.83         C11-C10-Zr1-C15=304.74        
C11-C10-Zr1-C17=216.36        C11-C10-Zr1-C18=124.61        C11-C10-Zr1-C19= 68.93        C11-C10-Zr1-H27=317.62        
Zr1-C10-C9-C8= 50.71          C11-C10-C9-Zr1=289.55         C11-C10-C9-C8=340.26          

 CMA Distance (Angstroems)
 ---------------------------
R(CMA):  3.1375
           -------------------------------------------------
          |                Final Singlepoint                |
           -------------------------------------------------

          ...................................................
          :                      SETUP                      :
          :.................................................:
          :  # basis functions                 117          :
          :  # atomic orbitals                 114          :
          :  # shells                           60          :
          :  # electrons                       106          :
          :  max. iterations                   250          :
          :  Hamiltonian                  GFN2-xTB          :
          :  restarted?                      false          :
          :  GBSA solvation                  false          :
          :  PC potential                    false          :
          :  electronic temp.          300.0000000     K    :
          :  accuracy                    1.0000000          :
          :  -> integral cutoff          0.2500000E+02      :
          :  -> integral neglect         0.1000000E-07      :
          :  -> SCF convergence          0.1000000E-05 Eh   :
          :  -> wf. convergence          0.1000000E-03 e    :
          :  Broyden damping             0.4000000          :
          :  net charge                          0          :
          :  unpaired electrons                  0          :
          ...................................................

 iter      E             dE          RMSdq      gap      omega  full diag
   1    -55.0404071 -0.550404E+02  0.699E-01    0.05       0.0  T
   2    -54.8569532  0.183454E+00  0.137E+00    0.11       1.0  T
   3    -54.8907797 -0.338265E-01  0.121E+00    0.31       1.0  T
   4    -55.0208208 -0.130041E+00  0.728E-01    0.03       1.0  T
   5    -55.0210887 -0.267907E-03  0.654E-01    0.09       1.0  T
   6    -55.0421518 -0.210631E-01  0.258E-01    0.05       1.0  T
   7    -55.0381840  0.396774E-02  0.341E-01    0.08       1.0  T
   8    -55.0442645 -0.608044E-02  0.240E-01    0.06       1.0  T
   9    -55.0436519  0.612513E-03  0.235E-01    0.06       1.0  T
  10    -55.0475442 -0.389230E-02  0.718E-02    0.04       1.0  T
  11    -55.0477177 -0.173421E-03  0.498E-02    0.04       1.0  T
  12    -55.0478123 -0.946773E-04  0.329E-02    0.04       1.0  T
  13    -55.0478246 -0.122175E-04  0.249E-02    0.04       1.0  T
  14    -55.0478074  0.171426E-04  0.261E-02    0.04       1.0  T
  15    -55.0478529 -0.454506E-04  0.136E-02    0.04       1.2  T
  16    -55.0478583 -0.538247E-05  0.927E-03    0.04       1.8  T
  17    -55.0478589 -0.672417E-06  0.804E-03    0.04       2.1  T
  18    -55.0478597 -0.747545E-06  0.643E-03    0.04       2.6  T
  19    -55.0478595  0.128028E-06  0.636E-03    0.04       2.6  T
  20    -55.0478602 -0.642992E-06  0.446E-03    0.04       3.7  T
  21    -55.0478603 -0.113252E-06  0.395E-03    0.04       4.2  T
  22    -55.0478608 -0.538489E-06  0.345E-03    0.04       4.8  T
  23    -55.0478613 -0.483018E-06  0.209E-03    0.04       8.0  T
  24    -55.0478617 -0.387634E-06  0.815E-04    0.04      20.5  T
  25    -55.0478617  0.404011E-08  0.709E-04    0.04      23.5  T

   *** convergence criteria satisfied after 25 iterations ***

         #    Occupation            Energy/Eh            Energy/eV
      -------------------------------------------------------------
         1        2.0000           -1.1101383             -30.2084
       ...           ...                  ...                  ...
        47        2.0000           -0.4055532             -11.0357
        48        2.0000           -0.3985592             -10.8453
        49        2.0000           -0.3980195             -10.8307
        50        2.0000           -0.3915137             -10.6536
        51        2.0000           -0.3881143             -10.5611
        52        1.9997           -0.3796463             -10.3307
        53        1.3694           -0.3718635             -10.1189 (HOMO)
        54        0.6308           -0.3703906             -10.0788 (LUMO)
        55        0.0000           -0.3570025              -9.7145
        56                         -0.3542914              -9.6408
        57                         -0.3464566              -9.4276
        58                         -0.3429696              -9.3327
       ...                                ...                  ...
       114                          3.2011588              87.1080
      -------------------------------------------------------------
                  HL-Gap            0.0014729 Eh            0.0401 eV
             Fermi-level           -0.3711268 Eh          -10.0989 eV

 SCC (total)                   0 d,  0 h,  0 min,  0.113 sec
 SCC setup                      ...        0 min,  0.000 sec (  0.340%)
 Dispersion                     ...        0 min,  0.001 sec (  1.263%)
 classical contributions        ...        0 min,  0.000 sec (  0.426%)
 integral evaluation            ...        0 min,  0.003 sec (  2.725%)
 iterations                     ...        0 min,  0.092 sec ( 81.629%)
 molecular gradient             ...        0 min,  0.015 sec ( 13.260%)
 printout                       ...        0 min,  0.000 sec (  0.315%)

         :::::::::::::::::::::::::::::::::::::::::::::::::::::
         ::                     SUMMARY                     ::
         :::::::::::::::::::::::::::::::::::::::::::::::::::::
         :: total energy             -54.886884846868 Eh    ::
         :: gradient norm              0.030741435299 Eh/a0 ::
         :: HOMO-LUMO gap              0.040079671760 eV    ::
         ::.................................................::
         :: SCC energy               -55.045678755720 Eh    ::
         :: -> isotropic ES           -0.060357824540 Eh    ::
         :: -> anisotropic ES         -0.008455990237 Eh    ::
         :: -> anisotropic XC          0.026947326520 Eh    ::
         :: -> dispersion             -0.062751681227 Eh    ::
         :: repulsion energy           0.146524199001 Eh    ::
         :: add. restraining           0.012269709851 Eh    ::
         :: total charge               0.000000000012 e     ::
         :::::::::::::::::::::::::::::::::::::::::::::::::::::

           -------------------------------------------------
          |                Property Printout                |
           -------------------------------------------------

    * Orbital Energies and Occupations

         #    Occupation            Energy/Eh            Energy/eV
      -------------------------------------------------------------
         1        2.0000           -1.1101383             -30.2084
       ...           ...                  ...                  ...
        41        2.0000           -0.4315795             -11.7439
        42        2.0000           -0.4268528             -11.6153
        43        2.0000           -0.4252199             -11.5708
        44        2.0000           -0.4189998             -11.4016
        45        2.0000           -0.4139497             -11.2641
        46        2.0000           -0.4102048             -11.1622
        47        2.0000           -0.4055532             -11.0357
        48        2.0000           -0.3985592             -10.8453
        49        2.0000           -0.3980195             -10.8307
        50        2.0000           -0.3915137             -10.6536
        51        2.0000           -0.3881143             -10.5611
        52        1.9997           -0.3796463             -10.3307
        53        1.3694           -0.3718635             -10.1189 (HOMO)
        54        0.6308           -0.3703906             -10.0788 (LUMO)
        55        0.0000           -0.3570025              -9.7145
        56                         -0.3542914              -9.6408
        57                         -0.3464566              -9.4276
        58                         -0.3429696              -9.3327
        59                         -0.3388470              -9.2205
        60                         -0.3365886              -9.1590
        61                         -0.3270130              -8.8985
        62                         -0.3225832              -8.7779
        63                         -0.3160140              -8.5992
        64                         -0.3136997              -8.5362
       ...                                ...                  ...
       114                          3.2011588              87.1080
      -------------------------------------------------------------
                  HL-Gap            0.0014729 Eh            0.0401 eV
             Fermi-level           -0.3711268 Eh          -10.0989 eV

     #   Z          covCN         q      C6AA      α(0)
     1  40 Zr       8.505     1.013   137.186    17.600
     2  17 Cl       0.926    -0.383   111.576    16.160
     3  17 Cl       0.891    -0.339   110.053    16.049
     4   7 N        1.266    -0.394    28.643     7.606
     5   6 C        2.977    -0.063    29.559     8.918
     6   6 C        1.239    -0.158    42.271    11.002
     7   6 C        3.949    -0.012    20.721     6.468
     8   6 C        2.561    -0.076    29.940     8.944
     9   6 C        2.288    -0.071    31.596     9.120
    10   6 C        2.405    -0.032    29.451     8.844
    11   6 C        2.356    -0.149    33.038     9.351
    12   6 C        0.985    -0.118    39.744    10.591
    13   6 C        0.816    -0.120    38.563    10.340
    14   6 C        0.919    -0.123    39.410    10.511
    15   6 C        2.759    -0.035    28.840     8.794
    16   6 C        1.330    -0.181    42.637    11.019
    17   6 C        4.326    -0.033    21.075     6.520
    18   6 C        3.418    -0.066    25.102     7.680
    19   6 C        2.964    -0.088    30.197     9.013
    20   6 C        2.454    -0.074    30.211     8.970
    21   6 C        2.448    -0.043    29.453     8.855
    22   1 H        0.032     0.216     2.543     2.916
    23   1 H        0.142     0.217     2.512     2.895
    24   1 H        0.001    -0.012     8.162     5.224
    25   1 H        0.021     0.111     4.202     3.748
    26   1 H        0.003     0.052     5.715     4.371
    27   1 H        0.302     0.093     4.270     3.746
    28   1 H        0.000     0.014     7.024     4.846
    29   1 H        0.000    -0.020     8.564     5.351
    30   1 H        0.000     0.014     7.024     4.846
    31   1 H        0.108     0.292     1.815     2.462
    32   1 H        0.154     0.204     2.664     2.981
    33   1 H        0.006     0.109     4.251     3.770
    34   1 H        0.236     0.167     3.098     3.207
    35   1 H        0.041     0.074     5.087     4.123
    36   1 H        0.001     0.013     7.080     4.865

 Mol. C6AA /au·bohr⁶  :      27408.124920
 Mol. C8AA /au·bohr⁸  :     875989.425406
 Mol. α(0) /au        :        271.709153


Wiberg/Mayer (AO) data.
largest (>0.10) Wiberg bond orders for each atom

 ---------------------------------------------------------------------------
     #   Z sym  total        # sym  WBO       # sym  WBO       # sym  WBO
 ---------------------------------------------------------------------------
     1  40 Zr   4.362 --     3 Cl   0.584     4 N    0.549     2 Cl   0.529
                            17 C    0.405    18 C    0.300     7 C    0.257
                            10 C    0.192     8 C    0.177     5 C    0.170
                            11 C    0.160     9 C    0.156    15 C    0.151
                            27 H    0.125
     2  17 Cl   1.063 --     1 Zr   0.529    25 H    0.169
     3  17 Cl   1.149 --     1 Zr   0.584    32 H    0.207
     4   7 N    2.882 --    15 C    0.672     1 Zr   0.549     5 C    0.460
                            27 H    0.358
     5   6 C    3.518 --    19 C    0.680    12 C    0.621     6 C    0.520
                             7 C    0.463     4 N    0.460    23 H    0.171
                             1 Zr   0.170
     6   6 C    2.920 --     7 C    0.688    22 H    0.632    23 H    0.561
                             5 C    0.520
     7   6 C    3.854 --     8 C    1.035    11 C    0.936     6 C    0.688
                             5 C    0.463     1 Zr   0.257
     8   6 C    3.550 --     9 C    1.178     7 C    1.035    24 H    0.694
                             1 Zr   0.177    11 C    0.101
     9   6 C    3.652 --    10 C    1.336     8 C    1.178    25 H    0.654
                             1 Zr   0.156
    10   6 C    3.781 --     9 C    1.336    11 C    1.153    26 H    0.809
                             1 Zr   0.192
    11   6 C    3.096 --    10 C    1.153     7 C    0.936    27 H    0.308
                             1 Zr   0.160     8 C    0.101
    12   6 C    3.096 --    13 C    0.804    28 H    0.708     5 C    0.621
                            34 H    0.537
    13   6 C    2.673 --    29 H    0.810    12 C    0.804    14 C    0.654
    14   6 C    3.131 --    30 H    0.683    13 C    0.654    15 C    0.611
                            35 H    0.581    31 H    0.237
    15   6 C    3.588 --     4 N    0.672    16 C    0.660    17 C    0.617
                            14 C    0.611    20 C    0.345    31 H    0.201
                             1 Zr   0.151
    16   6 C    2.840 --    15 C    0.660    32 H    0.611    17 C    0.403
                            21 C    0.347    31 H    0.299
    17   6 C    3.622 --    21 C    0.897    18 C    0.629    15 C    0.617
                             1 Zr   0.405    16 C    0.403    20 C    0.324
    18   6 C    3.587 --    19 C    0.850    33 H    0.694    17 C    0.629
                            21 C    0.397     1 Zr   0.300    20 C    0.235
    19   6 C    3.267 --    20 C    0.884    18 C    0.850     5 C    0.680
                            34 H    0.251
    20   6 C    3.290 --    19 C    0.884    21 C    0.815    15 C    0.345
                            17 C    0.324    35 H    0.289    18 C    0.235
    21   6 C    3.353 --    17 C    0.897    20 C    0.815    36 H    0.594
                            18 C    0.397    16 C    0.347
    22   1 H    0.881 --     6 C    0.632
    23   1 H    0.923 --     6 C    0.561     5 C    0.171
    24   1 H    0.960 --     8 C    0.694
    25   1 H    0.943 --     9 C    0.654     2 Cl   0.169
    26   1 H    0.968 --    10 C    0.809
    27   1 H    0.972 --     4 N    0.358    11 C    0.308     1 Zr   0.125
    28   1 H    0.946 --    12 C    0.708
    29   1 H    0.875 --    13 C    0.810
    30   1 H    0.892 --    14 C    0.683
    31   1 H    0.904 --    16 C    0.299    14 C    0.237    15 C    0.201
    32   1 H    0.933 --    16 C    0.611     3 Cl   0.207
    33   1 H    0.939 --    18 C    0.694
    34   1 H    0.927 --    12 C    0.537    19 C    0.251
    35   1 H    0.976 --    14 C    0.581    20 C    0.289
    36   1 H    0.819 --    21 C    0.594
 ---------------------------------------------------------------------------

Topologies differ in total number of bonds
Writing topology from bond orders to xtbtopo.mol

molecular dipole:
                 x           y           z       tot (Debye)
 q only:       -0.824      -0.464      -0.494
   full:       -0.741      -0.726      -1.358       4.342
molecular quadrupole (traceless):
                xx          xy          yy          xz          yz          zz
 q only:       10.751      -1.140       5.807      -1.982       2.635     -16.557
  q+dip:       11.088       4.969       4.215      -2.339       0.916     -15.303
   full:       11.796       4.317       4.937      -1.048      -0.119     -16.733

           -------------------------------------------------
          |                Geometry Summary                 |
           -------------------------------------------------

      molecular mass/u    :      395.4378415
   center of mass at/Å    :       -0.3387614       0.1200206       0.4617090
  moments of inertia/u·Å² :        0.1419512E+04   0.1807884E+04   0.2282785E+04
rotational constants/cm⁻¹ :        0.1187566E-01   0.9324509E-02   0.7384677E-02

 * 6 selected distances

     #   Z          #   Z                                           value/Å
     1  40 Zr       2  17 Cl                                      2.2646080
     1  40 Zr       3  17 Cl                                      2.3709277 (max)
     1  40 Zr       4   7 N                                       2.0333257
     1  40 Zr       7   6 C                                       2.1146299
     1  40 Zr      17   6 C                                       2.0081925 (min)
     1  40 Zr      18   6 C                                       2.2868737

 * 3 distinct bonds (by element types)

   Z      Z             #   av. dist./Å        max./Å        min./Å
   6 C   40 Zr          3     2.1365654     2.2868737     2.0081925
   7 N   40 Zr          1     2.0333257     2.0333257     2.0333257
  17 Cl  40 Zr          2     2.3177679     2.3709277     2.2646080


optimized geometry written to: xtbopt.xyz


           -------------------------------------------------
          | TOTAL ENERGY              -54.886884846868 Eh   |
          | GRADIENT NORM               0.030741435299 Eh/α |
          | HOMO-LUMO GAP               0.040079671760 eV   |
           -------------------------------------------------

------------------------------------------------------------------------
 * finished run on 2026/03/05 at 12:14:08.897     
------------------------------------------------------------------------
 total:
 * wall-time:     0 d,  0 h,  0 min,  0.879 sec
 *  cpu-time:     0 d,  0 h,  0 min,  6.609 sec
 * ratio c/w:     7.523 speedup
 SCF:
 * wall-time:     0 d,  0 h,  0 min,  0.164 sec
 *  cpu-time:     0 d,  0 h,  0 min,  1.328 sec
 * ratio c/w:     8.075 speedup
 ANC optimizer:
 * wall-time:     0 d,  0 h,  0 min,  0.673 sec
 *  cpu-time:     0 d,  0 h,  0 min,  5.266 sec
 * ratio c/w:     7.829 speedup

