      -----------------------------------------------------------      
     |                   =====================                   |     
     |                           x T B                           |     
     |                   =====================                   |     
     |                         S. Grimme                         |     
     |          Mulliken Center for Theoretical Chemistry        |     
     |                    University of Bonn                     |     
      -----------------------------------------------------------      

   * xtb version 6.7.1 (edcfbbe) compiled by 'VssAdministrator@runnervmowedg' on 2025-09-04

   xtb is free software: you can redistribute it and/or modify it under
   the terms of the GNU Lesser General Public License as published by
   the Free Software Foundation, either version 3 of the License, or
   (at your option) any later version.
   
   xtb is distributed in the hope that it will be useful,
   but WITHOUT ANY WARRANTY; without even the implied warranty of
   MERCHANTABILITY or FITNESS FOR A PARTICULAR PURPOSE.  See the
   GNU Lesser General Public License for more details.
   
   Cite this work as:
   * C. Bannwarth, E. Caldeweyher, S. Ehlert, A. Hansen, P. Pracht,
     J. Seibert, S. Spicher, S. Grimme, WIREs Comput. Mol. Sci., 2020, 11,
     e01493. DOI: 10.1002/wcms.1493
   
   for GFN2-xTB:
   * C. Bannwarth, S. Ehlert and S. Grimme., J. Chem. Theory Comput., 2019,
     15, 1652-1671. DOI: 10.1021/acs.jctc.8b01176
   for GFN1-xTB:
   * S. Grimme, C. Bannwarth, P. Shushkov, J. Chem. Theory Comput., 2017,
     13, 1989-2009. DOI: 10.1021/acs.jctc.7b00118
   for GFN0-xTB:
   * P. Pracht, E. Caldeweyher, S. Ehlert, S. Grimme, ChemRxiv, 2019, preprint.
     DOI: 10.26434/chemrxiv.8326202.v1
   for GFN-FF:
   * S. Spicher and S. Grimme, Angew. Chem. Int. Ed., 2020, 59, 15665-15673.
     DOI: 10.1002/anie.202004239
   
   for ALPB and GBSA implicit solvation:
   * S. Ehlert, M. Stahn, S. Spicher, S. Grimme, J. Chem. Theory Comput.,
     2021, 17, 4250-4261. DOI: 10.1021/acs.jctc.1c00471
   
   for ddCOSMO and CPCM-X implicit solvation:
   * M. Stahn, S. Ehlert, S. Grimme, J. Phys. Chem. A,
     2023, XX, XXXX-XXXX. DOI: 10.1021/acs.jpca.3c04382
   
   for DFT-D4:
   * E. Caldeweyher, C. Bannwarth and S. Grimme, J. Chem. Phys., 2017,
     147, 034112. DOI: 10.1063/1.4993215
   * E. Caldeweyher, S. Ehlert, A. Hansen, H. Neugebauer, S. Spicher,
     C. Bannwarth and S. Grimme, J. Chem. Phys., 2019, 150, 154122.
     DOI: 10.1063/1.5090222
   * E. Caldeweyher, J.-M. Mewes, S. Ehlert and S. Grimme, Phys. Chem. Chem. Phys.
     2020, 22, 8499-8512. DOI: 10.1039/D0CP00502A
   
   for sTDA-xTB:
   * S. Grimme and C. Bannwarth, J. Chem. Phys., 2016, 145, 054103.
     DOI: 10.1063/1.4959605
   
   in the mass-spec context:
   * V. Asgeirsson, C. Bauer and S. Grimme, Chem. Sci., 2017, 8, 4879.
     DOI: 10.1039/c7sc00601b
   * J. Koopman and S. Grimme, ACS Omega 2019, 4, 12, 15120-15133.
     DOI: 10.1021/acsomega.9b02011
   
   for metadynamics refer to:
   * S. Grimme, J. Chem. Theory Comput., 2019, 155, 2847-2862
     DOI: 10.1021/acs.jctc.9b00143
   
   for SPH calculations refer to:
   * S. Spicher and S. Grimme, J. Chem. Theory Comput., 2021, 17, 1701-1714
     DOI: 10.1021/acs.jctc.0c01306
   
   for ONIOM refer to:
   * C. Plett, A. Katbashev, S. Ehlert, S. Grimme, M. Bursch,
     Phys. Chem. Chem. Phys., 2023, 25, 17860-17868. DOI: 10.1039/D3CP02178E
   
   for DIPRO refer to:
   * J. Kohn, N. Gildemeister, S. Grimme, D. Fazzi, A. Hansen,
     J. Chem. Phys., 2023, just accepted.
   
   for PTB refer to:
   * S. Grimme, M. Mueller, A. Hansen, J. Chem. Phys., 2023, 158, 124111.
     DOI: 10.1063/5.0137838
   
   with help from (in alphabetical order)
   P. Atkinson, C. Bannwarth, F. Bohle, G. Brandenburg, E. Caldeweyher
   M. Checinski, S. Dohm, S. Ehlert, S. Ehrlich, I. Gerasimov, C. Hölzer
   A. Katbashev, J. Kohn, J. Koopman, C. Lavigne, S. Lehtola, F. März, M. Müller,
   F. Musil, H. Neugebauer, J. Pisarek, C. Plett, P. Pracht, F. Pultar,
   J. Seibert, P. Shushkov, S. Spicher, M. Stahn, M. Steiner, T. Strunk,
   J. Stückrath, T. Rose, and J. Unsleber
   
 * started run on 2026/03/05 at 12:14:06.254     
   ID    Z sym.   atoms
    1   40 Zr     1
    2   17 Cl     2, 3
    3    7 N      4
    4    6 C      5-21
    5    1 H      22-36

           -------------------------------------------------
          |                Calculation Setup                |
           -------------------------------------------------

          program call               : xtb qc_relax_3.xyz --opt --chrg 0 --uhf 0 --cycles 5 --input xcontrol
          coordinate file            : qc_relax_3.xyz
          omp threads                :                    12


molecular fragmentation (1/2 indicates fragments):
111111111111111222222222222222222222
# atoms in fragment 1/2:    15    21
 fragment masses (1/2) :      308.25       87.18
CMA distance (Bohr)    :   4.739
constraining FC (au)   :  1.0000

           -------------------------------------------------
          |                 G F N 2 - x T B                 |
           -------------------------------------------------

        Reference                      10.1021/acs.jctc.8b01176
      * Hamiltonian:
        H0-scaling (s, p, d)           1.850000    2.230000    2.230000
        zeta-weighting                 0.500000
      * Dispersion:
        s8                             2.700000
        a1                             0.520000
        a2                             5.000000
        s9                             5.000000
      * Repulsion:
        kExp                           1.500000    1.000000
        rExp                           1.000000
      * Coulomb:
        alpha                          2.000000
        third order                    shell-resolved
        anisotropic                    true
        a3                             3.000000
        a5                             4.000000
        cn-shift                       1.200000
        cn-exp                         4.000000
        max-rad                        5.000000

q/qsh data taken from xtbrestart
CAMM data taken from xtbrestart

          ...................................................
          :                      SETUP                      :
          :.................................................:
          :  # basis functions                 117          :
          :  # atomic orbitals                 114          :
          :  # shells                           60          :
          :  # electrons                       106          :
          :  max. iterations                   250          :
          :  Hamiltonian                  GFN2-xTB          :
          :  restarted?                       true          :
          :  GBSA solvation                  false          :
          :  PC potential                    false          :
          :  electronic temp.          300.0000000     K    :
          :  accuracy                    1.0000000          :
          :  -> integral cutoff          0.2500000E+02      :
          :  -> integral neglect         0.1000000E-07      :
          :  -> SCF convergence          0.1000000E-05 Eh   :
          :  -> wf. convergence          0.1000000E-03 e    :
          :  Broyden damping             0.4000000          :
          :  net charge                          0          :
          :  unpaired electrons                  0          :
          ...................................................

 iter      E             dE          RMSdq      gap      omega  full diag
   1    -55.8940230 -0.558940E+02  0.395E-01    0.08       0.0  T
   2    -55.8484551  0.455680E-01  0.800E-01    0.23       1.0  T
   3    -55.8798557 -0.314006E-01  0.532E-01    0.09       1.0  T
   4    -55.8853171 -0.546138E-02  0.524E-01    0.12       1.0  T
   5    -55.8885726 -0.325557E-02  0.437E-01    0.12       1.0  T
   6    -55.8940798 -0.550721E-02  0.230E-01    0.10       1.0  T
   7    -55.8962589 -0.217908E-02  0.144E-01    0.11       1.0  T
   8    -55.8968463 -0.587394E-03  0.894E-02    0.11       1.0  T
   9    -55.8967658  0.804728E-04  0.777E-02    0.10       1.0  T
  10    -55.8971870 -0.421186E-03  0.385E-02    0.11       1.0  T
  11    -55.8972424 -0.553421E-04  0.200E-02    0.11       1.0  T
  12    -55.8972582 -0.158160E-04  0.111E-02    0.10       1.5  T
  13    -55.8972561  0.211281E-05  0.109E-02    0.10       1.5  T
  14    -55.8972549  0.118048E-05  0.104E-02    0.10       1.6  T
  15    -55.8972594 -0.450748E-05  0.673E-03    0.10       2.5  T
  16    -55.8972611 -0.174480E-05  0.349E-03    0.11       4.8  T
  17    -55.8972616 -0.420058E-06  0.227E-03    0.11       7.3  T
  18    -55.8972617 -0.128198E-06  0.141E-03    0.11      11.8  T
  19    -55.8972617 -0.486936E-07  0.876E-04    0.11      19.0  T
  20    -55.8972618 -0.100930E-07  0.626E-04    0.11      26.6  T

   *** convergence criteria satisfied after 20 iterations ***

         #    Occupation            Energy/Eh            Energy/eV
      -------------------------------------------------------------
         1        2.0000           -1.1035098             -30.0280
       ...           ...                  ...                  ...
        47        2.0000           -0.3991968             -10.8627
        48        2.0000           -0.3931376             -10.6978
        49        2.0000           -0.3844181             -10.4605
        50        2.0000           -0.3807817             -10.3616
        51        2.0000           -0.3736374             -10.1672
        52        2.0000           -0.3681247             -10.0172
        53        1.7691           -0.3568139              -9.7094 (HOMO)
        54        0.2308           -0.3529443              -9.6041 (LUMO)
        55        0.0000           -0.3442326              -9.3670
        56                         -0.3310280              -9.0077
        57                         -0.3155628              -8.5869
        58                         -0.3030124              -8.2454
       ...                                ...                  ...
       114                          2.6469078              72.0260
      -------------------------------------------------------------
                  HL-Gap            0.0038696 Eh            0.1053 eV
             Fermi-level           -0.3548791 Eh           -9.6568 eV

 SCC (total)                   0 d,  0 h,  0 min,  0.099 sec
 SCC setup                      ...        0 min,  0.001 sec (  0.529%)
 Dispersion                     ...        0 min,  0.001 sec (  0.822%)
 classical contributions        ...        0 min,  0.000 sec (  0.156%)
 integral evaluation            ...        0 min,  0.008 sec (  8.521%)
 iterations                     ...        0 min,  0.075 sec ( 75.420%)
 molecular gradient             ...        0 min,  0.014 sec ( 14.224%)
 printout                       ...        0 min,  0.000 sec (  0.297%)

         :::::::::::::::::::::::::::::::::::::::::::::::::::::
         ::                     SUMMARY                     ::
         :::::::::::::::::::::::::::::::::::::::::::::::::::::
         :: total energy             -55.696440677566 Eh    ::
         :: gradient norm              0.186688967562 Eh/a0 ::
         :: HOMO-LUMO gap              0.105296018601 eV    ::
         ::.................................................::
         :: SCC energy               -55.895247205838 Eh    ::
         :: -> isotropic ES            0.022658508508 Eh    ::
         :: -> anisotropic ES         -0.002221999279 Eh    ::
         :: -> anisotropic XC          0.045393142995 Eh    ::
         :: -> dispersion             -0.059504883706 Eh    ::
         :: repulsion energy           0.198806528272 Eh    ::
         :: add. restraining           0.000000000000 Eh    ::
         :: total charge              -0.000000000000 e     ::
         :::::::::::::::::::::::::::::::::::::::::::::::::::::

      ----------------------------------------------------------- 
     |                   =====================                   |
     |                        A N C O P T                        |
     |                   =====================                   |
     |               Approximate Normal Coordinate               |
     |                Rational Function Optimizer                |
      ----------------------------------------------------------- 
      ----------------------------------------------------------- 
     |                   =====================                   |
     |                        A N C O P T                        |
     |                   =====================                   |
     |               Approximate Normal Coordinate               |
     |                Rational Function Optimizer                |
      ----------------------------------------------------------- 

          ...................................................
          :                      SETUP                      :
          :.................................................:
          :   optimization level            normal          :
          :   max. optcycles                     5          :
          :   ANC micro-cycles                   5          :
          :   degrees of freedom               102          :
          :.................................................:
          :   RF solver                   davidson          :
          :   write xtbopt.log                true          :
          :   linear?                        false          :
          :   energy convergence         0.5000000E-05 Eh   :
          :   grad. convergence          0.1000000E-02 Eh/α :
          :   maxmium RF displ.          1.0000000          :
          :   Hlow (freq-cutoff)         0.1000000E-01      :
          :   Hmax (freq-cutoff)         5.0000000          :
          :   S6 in model hess.         20.0000000          :
          ...................................................

generating ANC from exact Hessian ...
Using Lindh-Hessian (1995)
 Shifting diagonal of input Hessian by    1.0275141625987340E-002
 Lowest  eigenvalues of input Hessian
    0.010000    0.010018    0.000000    0.000000    0.000000    0.000000
    0.000000    0.000000    0.010411    0.010447    0.010555    0.010733
    0.010875    0.011047    0.011112    0.011210    0.011345    0.011421
 Highest eigenvalues
    1.681299    1.775486    1.831094    1.963576    2.337366    2.549911


........................................................................
.............................. CYCLE    1 ..............................
........................................................................

 iter      E             dE          RMSdq      gap      omega  full diag
   1    -55.8972618 -0.558973E+02  0.416E-04    0.11       0.0  T
   2    -55.8972614  0.318971E-06  0.209E-03    0.11       8.0  T
   3    -55.8972618 -0.316912E-06  0.451E-04    0.11      37.0  T
   4    -55.8972618 -0.150420E-08  0.377E-04    0.11      44.2  T
     SCC iter.                  ...        0 min,  0.015 sec
     gradient                   ...        0 min,  0.014 sec
 * total energy  :   -55.6964407 Eh     change       -0.6457100E-08 Eh
   gradient norm :     0.1866889 Eh/α   predicted     0.0000000E+00 (-100.00%)
   displ. norm   :     0.2315661 α      lambda       -0.2445227E-01
   maximum displ.:     0.0958493 α      in ANC's #47, #48, #51, ...

........................................................................
.............................. CYCLE    2 ..............................
........................................................................

 iter      E             dE          RMSdq      gap      omega  full diag
   1    -55.8273837 -0.558274E+02  0.338E-01    0.15       0.0  T
   2    -55.6754881  0.151896E+00  0.143E+00    0.04       1.0  T
   3    -55.8159940 -0.140506E+00  0.414E-01    0.20       1.0  T
   4    -55.8226013 -0.660731E-02  0.460E-01    0.15       1.0  T
   5    -55.8273664 -0.476511E-02  0.268E-01    0.14       1.0  T
   6    -55.8278451 -0.478663E-03  0.232E-01    0.14       1.0  T
   7    -55.8294644 -0.161929E-02  0.154E-01    0.14       1.0  T
   8    -55.8299337 -0.469355E-03  0.125E-01    0.14       1.0  T
   9    -55.8301320 -0.198239E-03  0.106E-01    0.13       1.0  T
  10    -55.8304716 -0.339640E-03  0.592E-02    0.13       1.0  T
  11    -55.8306211 -0.149497E-03  0.338E-02    0.12       1.0  T
  12    -55.8306475 -0.263646E-04  0.200E-02    0.12       1.0  T
  13    -55.8306595 -0.119841E-04  0.119E-02    0.12       1.4  T
  14    -55.8306622 -0.275630E-05  0.553E-03    0.12       3.0  T
  15    -55.8306633 -0.110963E-05  0.264E-03    0.12       6.3  T
  16    -55.8306636 -0.221028E-06  0.177E-03    0.12       9.4  T
  17    -55.8306636 -0.904171E-07  0.147E-03    0.12      11.4  T
  18    -55.8306637 -0.428789E-07  0.843E-04    0.12      19.8  T
  19    -55.8306637 -0.129615E-07  0.753E-04    0.12      22.1  T
     SCC iter.                  ...        0 min,  0.060 sec
     gradient                   ...        0 min,  0.014 sec
 * total energy  :   -55.6448064 Eh     change        0.5163425E-01 Eh
   gradient norm :     0.0400746 Eh/α   predicted    -0.1288474E-01 (-124.95%)
   displ. norm   :     0.3482239 α      lambda       -0.5471369E-02
   maximum displ.:     0.1194518 α      in ANC's #47, #22, #2, ...

........................................................................
.............................. CYCLE    3 ..............................
........................................................................

 iter      E             dE          RMSdq      gap      omega  full diag
   1    -55.7479437 -0.557479E+02  0.399E-01    0.16       0.0  T
   2    -55.6947992  0.531445E-01  0.975E-01    0.06       1.0  T
   3    -55.7387506 -0.439514E-01  0.468E-01    0.20       1.0  T
   4    -55.7427073 -0.395672E-02  0.409E-01    0.15       1.0  T
   5    -55.7395749  0.313238E-02  0.411E-01    0.12       1.0  T
   6    -55.7472105 -0.763560E-02  0.189E-01    0.16       1.0  T
   7    -55.7483544 -0.114390E-02  0.217E-01    0.14       1.0  T
   8    -55.7501805 -0.182612E-02  0.910E-02    0.14       1.0  T
   9    -55.7502434 -0.628424E-04  0.723E-02    0.14       1.0  T
  10    -55.7503575 -0.114124E-03  0.455E-02    0.14       1.0  T
  11    -55.7503833 -0.257599E-04  0.272E-02    0.14       1.0  T
  12    -55.7504294 -0.461564E-04  0.966E-03    0.13       1.7  T
  13    -55.7504319 -0.244963E-05  0.711E-03    0.13       2.3  T
  14    -55.7504333 -0.145948E-05  0.471E-03    0.13       3.5  T
  15    -55.7504342 -0.850323E-06  0.312E-03    0.13       5.3  T
  16    -55.7504342 -0.416652E-08  0.241E-03    0.13       6.9  T
  17    -55.7504345 -0.291232E-06  0.140E-03    0.13      11.9  T
  18    -55.7504345  0.510667E-10  0.117E-03    0.13      14.3  T
  19    -55.7504345 -0.186113E-07  0.972E-04    0.13      17.1  T
  20    -55.7504345 -0.236249E-07  0.724E-04    0.13      23.0  T
     SCC iter.                  ...        0 min,  0.064 sec
     gradient                   ...        0 min,  0.015 sec
 * total energy  :   -55.5677750 Eh     change        0.7703148E-01 Eh
   gradient norm :     0.0237357 Eh/α   predicted    -0.3067441E-02 (-103.98%)
   displ. norm   :     0.6709418 α      lambda       -0.7190699E-02
   maximum displ.:     0.2286757 α      in ANC's #47, #22, #2, ...

........................................................................
.............................. CYCLE    4 ..............................
........................................................................

 iter      E             dE          RMSdq      gap      omega  full diag
   1    -55.5819963 -0.555820E+02  0.897E-01    0.14       0.0  T
   2    -55.3014007  0.280596E+00  0.208E+00    0.11       1.0  T
   3    -55.5437452 -0.242345E+00  0.101E+00    0.21       1.0  T
   4    -55.5407743  0.297097E-02  0.924E-01    0.06       1.0  T
   5    -55.5340753  0.669899E-02  0.914E-01    0.17       1.0  T
   6    -55.5893046 -0.552293E-01  0.426E-01    0.16       1.0  T
   7    -55.5896476 -0.342977E-03  0.452E-01    0.16       1.0  T
   8    -55.5936394 -0.399181E-02  0.291E-01    0.15       1.0  T
   9    -55.5979442 -0.430484E-02  0.218E-01    0.16       1.0  T
  10    -55.5980381 -0.938823E-04  0.180E-01    0.14       1.0  T
  11    -55.5992496 -0.121153E-02  0.118E-01    0.15       1.0  T
  12    -55.5998840 -0.634325E-03  0.516E-02    0.14       1.0  T
  13    -55.5999687 -0.847548E-04  0.359E-02    0.14       1.0  T
  14    -55.6000011 -0.324125E-04  0.237E-02    0.14       1.0  T
  15    -55.6000168 -0.156386E-04  0.146E-02    0.14       1.1  T
  16    -55.6000209 -0.415022E-05  0.882E-03    0.14       1.9  T
  17    -55.6000227 -0.177087E-05  0.643E-03    0.14       2.6  T
  18    -55.6000242 -0.146866E-05  0.408E-03    0.14       4.1  T
  19    -55.6000244 -0.210592E-06  0.309E-03    0.14       5.4  T
  20    -55.6000245 -0.980043E-07  0.257E-03    0.14       6.5  T
  21    -55.6000247 -0.200605E-06  0.169E-03    0.14       9.9  T
  22    -55.6000247 -0.510002E-07  0.971E-04    0.14      17.2  T
  23    -55.6000247 -0.174492E-07  0.640E-04    0.14      26.0  T
     SCC iter.                  ...        0 min,  0.099 sec
     gradient                   ...        0 min,  0.012 sec
 * total energy  :   -55.4200703 Eh     change        0.1477046E+00 Eh
   gradient norm :     0.0486086 Eh/α   predicted    -0.5214954E-02 (-103.53%)
   displ. norm   :     0.6909500 α      lambda       -0.5965764E-02
   maximum displ.:     0.2383851 α      in ANC's #22, #47, #2, ...

........................................................................
.............................. CYCLE    5 ..............................
........................................................................

 iter      E             dE          RMSdq      gap      omega  full diag
   1    -55.4025493 -0.554025E+02  0.137E+00    0.09       0.0  T
   2    -54.0162809  0.138627E+01  0.368E+00    0.28       1.0  T
   3    -55.0571725 -0.104089E+01  0.208E+00    0.21       1.0  T
   4    -55.3349355 -0.277763E+00  0.135E+00    0.32       1.0  T
   5    -55.3122878  0.226477E-01  0.156E+00    0.02       1.0  T
   6    -55.4377168 -0.125429E+00  0.788E-01    0.14       1.0  T
   7    -55.4434247 -0.570794E-02  0.626E-01    0.13       1.0  T
   8    -55.4435238 -0.990978E-04  0.675E-01    0.14       1.0  T
   9    -55.4474218 -0.389795E-02  0.580E-01    0.14       1.0  T
  10    -55.4580234 -0.106016E-01  0.429E-01    0.11       1.0  T
  11    -55.4672014 -0.917802E-02  0.159E-01    0.07       1.0  T
  12    -55.4684408 -0.123939E-02  0.138E-01    0.05       1.0  T
  13    -55.4690072 -0.566317E-03  0.939E-02    0.06       1.0  T
  14    -55.4691992 -0.192094E-03  0.683E-02    0.06       1.0  T
  15    -55.4693250 -0.125717E-03  0.381E-02    0.06       1.0  T
  16    -55.4693504 -0.253922E-04  0.292E-02    0.07       1.0  T
  17    -55.4694016 -0.511944E-04  0.171E-02    0.07       1.0  T
  18    -55.4694098 -0.829606E-05  0.118E-02    0.07       1.4  T
  19    -55.4694184 -0.853938E-05  0.574E-03    0.06       2.9  T
  20    -55.4694189 -0.475067E-06  0.412E-03    0.06       4.0  T
  21    -55.4694191 -0.288931E-06  0.313E-03    0.06       5.3  T
  22    -55.4694190  0.129228E-06  0.278E-03    0.06       6.0  T
  23    -55.4694192 -0.164723E-06  0.196E-03    0.06       8.5  T
  24    -55.4694194 -0.188807E-06  0.126E-03    0.06      13.2  T
  25    -55.4694195 -0.840953E-07  0.738E-04    0.06      22.6  T
  26    -55.4694194  0.245846E-07  0.951E-04    0.06      17.5  T
     SCC iter.                  ...        0 min,  0.076 sec
     gradient                   ...        0 min,  0.013 sec
 * total energy  :   -55.2913637 Eh     change        0.1287066E+00 Eh
   gradient norm :     0.0525090 Eh/α   predicted    -0.4406950E-02 (-103.42%)
   displ. norm   :     0.6726972 α      lambda       -0.6160342E-02
   maximum displ.:     0.2468342 α      in ANC's #22, #36, #47, ...

   *** FAILED TO CONVERGE GEOMETRY OPTIMIZATION IN 5 ITERATIONS ***


 ANCopt (total)                0 d,  0 h,  0 min,  0.428 sec
 optimizer setup                ...        0 min,  0.000 sec (  0.106%)
 model hessian                  ...        0 min,  0.014 sec (  3.365%)
 ANC generation                 ...        0 min,  0.002 sec (  0.356%)
 coordinate transformation      ...        0 min,  0.000 sec (  0.030%)
 single point calculation       ...        0 min,  0.407 sec ( 95.008%)
 optimization log               ...        0 min,  0.002 sec (  0.542%)
 hessian update                 ...        0 min,  0.001 sec (  0.128%)
 rational function              ...        0 min,  0.001 sec (  0.338%)

================
 final structure:
================
36
 xtb: 6.7.1 (edcfbbe)
Zr          -0.11230132913085        0.35329298910145       -0.07145199231881
Cl          -0.21147770244100        0.17932448612097       -2.32323476446832
Cl           2.21632176371563        0.28554684291350       -0.27948326275344
N            0.18051375389823        0.30982033880788        1.90969452478055
C           -1.72093107274232        0.17729581627434        1.78658271855030
C           -2.51034729268772        1.94337596056034        2.44951463946499
C           -1.29188442493884        2.01009384767299        0.95394842991582
C           -2.28169208251824        2.16204145972485       -0.27506389618855
C           -1.37713761850116        2.86771844017846       -1.38874592824551
C            0.04339168549725        3.26797219441872       -0.76523248454341
C           -0.25730892381812        3.23666823196968        0.82494306545940
C           -2.34514183497549       -0.68350067285810        3.51875429845084
C           -0.74493560036826       -1.25512566846127        4.77395839507997
C            0.47992438739774       -2.39304472520389        3.61587767743924
C            1.00859078589862       -1.27112999967270        2.06784180738415
C            1.66409934459565       -2.37036165390498        0.65667269955784
C            0.15385828295165       -1.64113959896156       -0.25560398214566
C           -1.42678080712302       -1.53663788317846       -0.66657351019589
C           -2.26811690349184       -1.64647643142429        0.70867088192964
C           -1.18702696733519       -2.89911550328242        0.81813700364352
C           -0.11431050642653       -3.14078683432415       -0.44229542978927
H           -1.40884903872768        2.76574083207643        3.36617520533718
H           -3.90745038313578        1.16261445959273        2.14467517762935
H           -3.57877868185603        1.10466594034226       -0.68878945360437
H           -1.25773358776076        2.30224181745217       -2.99234435341988
H            1.59855428739630        3.30595889265016       -1.42307193543872
H            0.97155963412052        2.50873470937742        1.84423007100496
H           -3.39521990265064        0.19648459827389        4.62849660149937
H           -1.24193247609422       -2.45205038740791        5.91972198296031
H            1.32909301052951       -3.81966257408119        4.00453072677876
H            1.09508579284946       -3.68299691393924        1.47603900175715
H            2.85195720560990       -1.41962609386449        0.13673539904654
H           -1.92140676604098       -2.10966813330669       -2.19458354847611
H           -2.68790496287346       -1.17702270659504        2.21085448705729
H           -0.81201597587795       -3.22930124468170        2.42101913499775
H           -0.51771309293932       -3.82447783235692       -1.96850238813632

 Bond Distances (Angstroems)
 ---------------------------
Zr1-Cl2=2.2607       Zr1-Cl3=2.3389       Zr1-N4=2.0031        Zr1-C5=2.4639        Zr1-C7=2.2777        Zr1-C8=2.8318        
Zr1-C10=3.0002       Zr1-C11=3.0230       Zr1-C15=2.9106       Zr1-C17=2.0205       Zr1-C18=2.3778       Zr1-C19=3.0422       
Cl2-Zr1=2.2607       Cl3-Zr1=2.3389       N4-Zr1=2.0031        N4-C15=1.7917        C5-Zr1=2.4639        C6-C7=1.9302         
C7-Zr1=2.2777        C7-C6=1.9302         C7-C8=1.5853         C7-C11=1.6098        C8-Zr1=2.8318        C8-C7=1.5853         
C8-C9=1.5989         C9-C8=1.5989         C9-C10=1.6021        C10-Zr1=3.0002       C10-C9=1.6021        C10-C11=1.6187       
C11-Zr1=3.0230       C11-C7=1.6098        C11-C10=1.6187       C15-Zr1=2.9106       C15-N4=1.7917        C15-C16=1.9051       
C16-C15=1.9051       C16-C17=1.9091       C17-Zr1=2.0205       C17-C16=1.9091       C17-C18=1.6365       C17-C21=1.5348       
C18-Zr1=2.3778       C18-C17=1.6365       C18-C19=1.6159       C19-Zr1=3.0422       C19-C18=1.6159       C19-C20=1.6583       
C20-C19=1.6583       C20-C21=1.6727       C21-C17=1.5348       C21-C20=1.6727       
 C  C  Rav=1.6829 sigma=0.1311  Rmin=1.5348  Rmax=1.9302    13
 N  C  Rav=1.7917 sigma=0.0000  Rmin=1.7917  Rmax=1.7917     1
 Zr C  Rav=2.6609 sigma=0.3589  Rmin=2.0205  Rmax=3.0422     9
 Zr N  Rav=2.0031 sigma=0.0000  Rmin=2.0031  Rmax=2.0031     1
 Zr Cl Rav=2.2998 sigma=0.0391  Rmin=2.2607  Rmax=2.3389     2

 selected bond angles (degree)
 --------------------
Cl3-Zr1-Cl2= 87.30             N4-Zr1-Cl2=171.84              N4-Zr1-Cl3= 86.66              C5-Zr1-Cl2=135.81              
C5-Zr1-Cl3=135.64              C5-Zr1-N4= 49.31               C7-Zr1-Cl2=118.80              C7-Zr1-Cl3=125.22              
C7-Zr1-N4= 69.28               C7-Zr1-C5= 51.27               C8-Zr1-Cl2= 86.79              C8-Zr1-Cl3=140.79              
C8-Zr1-N4=101.36               C8-Zr1-C5= 66.40               C8-Zr1-C7= 34.01               C10-Zr1-Cl2= 81.18             
C10-Zr1-Cl3= 87.47             C10-Zr1-N4=104.02              C10-Zr1-C5=106.12              C10-Zr1-C7= 54.85              
C10-Zr1-C8= 53.32              C11-Zr1-Cl2=111.51             C11-Zr1-Cl3= 95.84             C11-Zr1-N4= 74.60              
C11-Zr1-C5= 79.23              C11-Zr1-C7= 31.55              C11-Zr1-C8= 51.34              C11-Zr1-C10= 31.18             
C15-Zr1-Cl2=134.91             C15-Zr1-Cl3= 70.48             C15-Zr1-N4= 37.31              C15-Zr1-C5= 69.96              
C15-Zr1-C7=105.93              C15-Zr1-C8=134.78              C15-Zr1-C10=133.80             C15-Zr1-C11=109.44             
C17-Zr1-Cl2= 80.74             C17-Zr1-Cl3= 80.34             C17-Zr1-N4= 92.84              C17-Zr1-C5= 94.83              
C17-Zr1-C7=145.82              C17-Zr1-C8=136.45              C17-Zr1-C10=158.60             C17-Zr1-C11=167.12             
C17-Zr1-C15= 57.68             C18-Zr1-Cl2= 70.44             C18-Zr1-Cl3=120.34             C18-Zr1-N4=108.13              
C18-Zr1-C5= 76.76              C18-Zr1-C7=113.86              C18-Zr1-C8= 93.79              C18-Zr1-C10=137.99             
C18-Zr1-C11=143.69             C18-Zr1-C15= 87.32             C18-Zr1-C17= 42.73             C19-Zr1-Cl2=100.01             
C19-Zr1-Cl3=135.18             C19-Zr1-N4= 80.54              C19-Zr1-C5= 45.33              C19-Zr1-C7= 89.75              
C19-Zr1-C8= 84.00              C19-Zr1-C10=137.28             C19-Zr1-C11=121.13             C19-Zr1-C15= 73.59             
C19-Zr1-C17= 57.85             C19-Zr1-C18= 31.79             C15-N4-Zr1=100.02              C6-C7-Zr1=130.59               
C8-C7-Zr1= 92.52               C8-C7-C6=102.11                C11-C7-Zr1=100.68              C11-C7-C6=119.61               
C11-C7-C8=105.43               C7-C8-Zr1= 53.47               C9-C8-Zr1= 84.18               C9-C8-C7=103.24                
C10-C9-C8=109.93               C9-C10-Zr1= 78.54              C11-C10-Zr1= 75.19             C11-C10-C9=102.29              

 selected dihedral angles (degree)
 ---------------------------------
C15-N4-Zr1-Cl2=340.74         C15-N4-Zr1-Cl3=298.41         C15-N4-Zr1-C5=112.49          C15-N4-Zr1-C7=168.64          
C15-N4-Zr1-C8=157.16          C15-N4-Zr1-C10=211.85         C15-N4-Zr1-C11=201.42         C15-N4-Zr1-C17= 18.55         
C15-N4-Zr1-C18= 59.29         C15-N4-Zr1-C19= 75.30         C6-C7-Zr1-Cl2=130.03          C6-C7-Zr1-Cl3=238.82          
C6-C7-Zr1-N4=308.75           C6-C7-Zr1-C5=  2.59           C6-C7-Zr1-C8=108.32           C6-C7-Zr1-C10=183.09          
C6-C7-Zr1-C11=214.55          C6-C7-Zr1-C15=315.88          C6-C7-Zr1-C17= 11.18          C6-C7-Zr1-C18= 50.08          
C6-C7-Zr1-C19= 28.73          C8-C7-Zr1-Cl2= 21.70          C8-C7-Zr1-Cl3=130.50          C8-C7-Zr1-N4=200.43           
C8-C7-Zr1-C5=254.26           C8-C7-Zr1-C10= 74.77          C8-C7-Zr1-C11=106.22          C8-C7-Zr1-C15=207.56          
C8-C7-Zr1-C17=262.86          C8-C7-Zr1-C18=301.75          C8-C7-Zr1-C19=280.41          C11-C7-Zr1-Cl2=275.48         
C11-C7-Zr1-Cl3= 24.28         C11-C7-Zr1-N4= 94.21          C11-C7-Zr1-C5=148.04          C11-C7-Zr1-C8=253.78          
C11-C7-Zr1-C10=328.54         C11-C7-Zr1-C15=101.34         C11-C7-Zr1-C17=156.64         C11-C7-Zr1-C18=195.53         
C11-C7-Zr1-C19=174.18         C7-C8-Zr1-Cl2=198.94          C7-C8-Zr1-Cl3=280.69          C7-C8-Zr1-N4= 19.45           
C7-C8-Zr1-C5= 55.02           C7-C8-Zr1-C10=280.34          C7-C8-Zr1-C11=319.95          C7-C8-Zr1-C15= 38.81          
C7-C8-Zr1-C17=125.99          C7-C8-Zr1-C18=128.80          C7-C8-Zr1-C19= 98.52          C9-C8-Zr1-Cl2=310.17          
C9-C8-Zr1-Cl3= 31.92          C9-C8-Zr1-N4=130.68           C9-C8-Zr1-C5=166.25           C9-C8-Zr1-C7=111.23           
C9-C8-Zr1-C10= 31.56          C9-C8-Zr1-C11= 71.18          C9-C8-Zr1-C15=150.04          C9-C8-Zr1-C17=237.21          
C9-C8-Zr1-C18=240.03          C9-C8-Zr1-C19=209.75          Zr1-C8-C7-C6=227.51           Zr1-C8-C7-C11=101.81          
C9-C8-C7-Zr1=287.70           C9-C8-C7-C6=155.20            C9-C8-C7-C11= 29.50           C10-C9-C8-Zr1=303.27          
C10-C9-C8-C7=353.58           Zr1-C10-C9-C8= 53.23          C11-C10-C9-C8=341.36          

 CMA Distance (Angstroems)
 ---------------------------
R(CMA):  2.5135
           -------------------------------------------------
          |                Final Singlepoint                |
           -------------------------------------------------

          ...................................................
          :                      SETUP                      :
          :.................................................:
          :  # basis functions                 117          :
          :  # atomic orbitals                 114          :
          :  # shells                           60          :
          :  # electrons                       106          :
          :  max. iterations                   250          :
          :  Hamiltonian                  GFN2-xTB          :
          :  restarted?                      false          :
          :  GBSA solvation                  false          :
          :  PC potential                    false          :
          :  electronic temp.          300.0000000     K    :
          :  accuracy                    1.0000000          :
          :  -> integral cutoff          0.2500000E+02      :
          :  -> integral neglect         0.1000000E-07      :
          :  -> SCF convergence          0.1000000E-05 Eh   :
          :  -> wf. convergence          0.1000000E-03 e    :
          :  Broyden damping             0.4000000          :
          :  net charge                          0          :
          :  unpaired electrons                  0          :
          ...................................................

 iter      E             dE          RMSdq      gap      omega  full diag
   1    -55.2941177 -0.552941E+02  0.128E+00    0.09       0.0  T
   2    -53.7594609  0.153466E+01  0.389E+00    0.31       1.0  T
   3    -55.2587152 -0.149925E+01  0.128E+00    0.07       1.0  T
   4    -55.2419835  0.167317E-01  0.134E+00    0.04       1.0  T
   5    -55.2555898 -0.136062E-01  0.111E+00    0.24       1.0  T
   6    -55.3094422 -0.538524E-01  0.737E-01    0.05       1.0  T
   7    -55.3434233 -0.339811E-01  0.520E-01    0.10       1.0  T
   8    -55.3519072 -0.848390E-02  0.413E-01    0.09       1.0  T
   9    -55.3499258  0.198143E-02  0.395E-01    0.09       1.0  T
  10    -55.3569738 -0.704804E-02  0.281E-01    0.07       1.0  T
  11    -55.3594992 -0.252538E-02  0.134E-01    0.06       1.0  T
  12    -55.3605656 -0.106639E-02  0.751E-02    0.05       1.0  T
  13    -55.3603426  0.222925E-03  0.944E-02    0.04       1.0  T
  14    -55.3608591 -0.516454E-03  0.469E-02    0.05       1.0  T
  15    -55.3608797 -0.206409E-04  0.416E-02    0.05       1.0  T
  16    -55.3609856 -0.105848E-03  0.102E-02    0.05       1.6  T
  17    -55.3609894 -0.383841E-05  0.760E-03    0.05       2.2  T
  18    -55.3609909 -0.149951E-05  0.470E-03    0.05       3.5  T
  19    -55.3609913 -0.373568E-06  0.368E-03    0.05       4.5  T
  20    -55.3609914 -0.135590E-06  0.294E-03    0.05       5.7  T
  21    -55.3609912  0.239932E-06  0.384E-03    0.05       4.3  T
  22    -55.3609917 -0.495882E-06  0.187E-03    0.05       8.9  T
  23    -55.3609918 -0.816606E-07  0.119E-03    0.05      14.0  T
  24    -55.3609917  0.409310E-07  0.138E-03    0.05      12.1  T
  25    -55.3609918 -0.964622E-07  0.641E-04    0.05      26.0  T
  26    -55.3609918 -0.177201E-07  0.329E-04    0.05      50.7  T

   *** convergence criteria satisfied after 26 iterations ***

         #    Occupation            Energy/Eh            Energy/eV
      -------------------------------------------------------------
         1        2.0000           -1.1064306             -30.1075
       ...           ...                  ...                  ...
        47        2.0000           -0.4025127             -10.9529
        48        2.0000           -0.3996025             -10.8737
        49        2.0000           -0.3954389             -10.7604
        50        2.0000           -0.3900202             -10.6130
        51        2.0000           -0.3812263             -10.3737
        52        2.0000           -0.3750541             -10.2057
        53        1.4685           -0.3612474              -9.8300 (HOMO)
        54        0.5310           -0.3593152              -9.7775 (LUMO)
        55        0.0005           -0.3523432              -9.5877
        56                         -0.3395718              -9.2402
        57                         -0.3317844              -9.0283
        58                         -0.3251187              -8.8469
       ...                                ...                  ...
       114                          2.7203070              74.0233
      -------------------------------------------------------------
                  HL-Gap            0.0019321 Eh            0.0526 eV
             Fermi-level           -0.3602819 Eh           -9.8038 eV

 SCC (total)                   0 d,  0 h,  0 min,  0.172 sec
 SCC setup                      ...        0 min,  0.000 sec (  0.201%)
 Dispersion                     ...        0 min,  0.001 sec (  0.391%)
 classical contributions        ...        0 min,  0.000 sec (  0.077%)
 integral evaluation            ...        0 min,  0.003 sec (  1.475%)
 iterations                     ...        0 min,  0.153 sec ( 88.666%)
 molecular gradient             ...        0 min,  0.015 sec (  8.955%)
 printout                       ...        0 min,  0.000 sec (  0.213%)

         :::::::::::::::::::::::::::::::::::::::::::::::::::::
         ::                     SUMMARY                     ::
         :::::::::::::::::::::::::::::::::::::::::::::::::::::
         :: total energy             -55.184677015668 Eh    ::
         :: gradient norm              0.030910813929 Eh/a0 ::
         :: HOMO-LUMO gap              0.052575433117 eV    ::
         ::.................................................::
         :: SCC energy               -55.358881246686 Eh    ::
         :: -> isotropic ES           -0.021752191738 Eh    ::
         :: -> anisotropic ES         -0.011633539959 Eh    ::
         :: -> anisotropic XC          0.035070724200 Eh    ::
         :: -> dispersion             -0.060834301354 Eh    ::
         :: repulsion energy           0.158844137811 Eh    ::
         :: add. restraining           0.015360093207 Eh    ::
         :: total charge              -0.000000000090 e     ::
         :::::::::::::::::::::::::::::::::::::::::::::::::::::

           -------------------------------------------------
          |                Property Printout                |
           -------------------------------------------------

    * Orbital Energies and Occupations

         #    Occupation            Energy/Eh            Energy/eV
      -------------------------------------------------------------
         1        2.0000           -1.1064306             -30.1075
       ...           ...                  ...                  ...
        41        2.0000           -0.4279178             -11.6442
        42        2.0000           -0.4250811             -11.5670
        43        2.0000           -0.4193924             -11.4122
        44        2.0000           -0.4156637             -11.3108
        45        2.0000           -0.4101941             -11.1619
        46        2.0000           -0.4050625             -11.0223
        47        2.0000           -0.4025127             -10.9529
        48        2.0000           -0.3996025             -10.8737
        49        2.0000           -0.3954389             -10.7604
        50        2.0000           -0.3900202             -10.6130
        51        2.0000           -0.3812263             -10.3737
        52        2.0000           -0.3750541             -10.2057
        53        1.4685           -0.3612474              -9.8300 (HOMO)
        54        0.5310           -0.3593152              -9.7775 (LUMO)
        55        0.0005           -0.3523432              -9.5877
        56                         -0.3395718              -9.2402
        57                         -0.3317844              -9.0283
        58                         -0.3251187              -8.8469
        59                         -0.3181316              -8.6568
        60                         -0.3175757              -8.6417
        61                         -0.3105471              -8.4504
        62                         -0.3093420              -8.4176
        63                         -0.3007801              -8.1846
        64                         -0.2982165              -8.1149
       ...                                ...                  ...
       114                          2.7203070              74.0233
      -------------------------------------------------------------
                  HL-Gap            0.0019321 Eh            0.0526 eV
             Fermi-level           -0.3602819 Eh           -9.8038 eV

     #   Z          covCN         q      C6AA      α(0)
     1  40 Zr       6.959     1.045   136.353    17.546
     2  17 Cl       0.812    -0.504   115.803    16.462
     3  17 Cl       0.962    -0.273   107.847    15.888
     4   7 N        2.009    -0.378    30.664     8.213
     5   6 C        2.643    -0.122    31.088     9.121
     6   6 C        1.135    -0.083    39.433    10.613
     7   6 C        3.742    -0.015    20.921     6.526
     8   6 C        2.379    -0.037    29.793     8.888
     9   6 C        2.094    -0.033    31.758     9.105
    10   6 C        2.189    -0.010    30.779     8.975
    11   6 C        2.148    -0.087    33.073     9.297
    12   6 C        1.129    -0.117    40.566    10.762
    13   6 C        0.702    -0.137    38.512    10.283
    14   6 C        0.963    -0.084    38.429    10.403
    15   6 C        2.275    -0.025    30.505     8.957
    16   6 C        1.627    -0.113    35.070     9.628
    17   6 C        3.684    -0.044    21.572     6.650
    18   6 C        3.509    -0.019    22.420     7.004
    19   6 C        2.322    -0.136    33.044     9.339
    20   6 C        2.591    -0.030    28.758     8.769
    21   6 C        2.365    -0.027    29.667     8.865
    22   1 H        0.044     0.161     3.290     3.316
    23   1 H        0.061     0.152     3.422     3.382
    24   1 H        0.013     0.014     7.038     4.851
    25   1 H        0.018     0.055     5.614     4.332
    26   1 H        0.024     0.040     6.090     4.512
    27   1 H        0.007     0.012     7.127     4.882
    28   1 H        0.006     0.024     6.654     4.717
    29   1 H        0.011    -0.001     7.675     5.065
    30   1 H        0.018     0.037     6.186     4.548
    31   1 H        0.046     0.114     4.136     3.718
    32   1 H        0.280     0.263     1.956     2.541
    33   1 H        0.018     0.032     6.364     4.612
    34   1 H        0.506     0.235     1.414     2.026
    35   1 H        0.028     0.049     5.798     4.403
    36   1 H        0.014     0.041     6.075     4.506

 Mol. C6AA /au·bohr⁶  :      27723.344317
 Mol. C8AA /au·bohr⁸  :     880758.911344
 Mol. α(0) /au        :        272.703691


Wiberg/Mayer (AO) data.
largest (>0.10) Wiberg bond orders for each atom

 ---------------------------------------------------------------------------
     #   Z sym  total        # sym  WBO       # sym  WBO       # sym  WBO
 ---------------------------------------------------------------------------
     1  40 Zr   4.278 --     4 N    0.625     3 Cl   0.621     2 Cl   0.582
                            17 C    0.426     7 C    0.259    18 C    0.256
                             5 C    0.225     8 C    0.144    10 C    0.136
                            15 C    0.133    11 C    0.123     9 C    0.101
     2  17 Cl   0.884 --     1 Zr   0.582
     3  17 Cl   1.247 --     1 Zr   0.621    32 H    0.303
     4   7 N    2.918 --    15 C    0.995     5 C    0.808     1 Zr   0.625
     5   6 C    3.320 --     4 N    0.808     6 C    0.607    12 C    0.591
                            19 C    0.341     7 C    0.306     1 Zr   0.225
                            34 H    0.110
     6   6 C    3.377 --    22 H    0.808    23 H    0.791     7 C    0.773
                             5 C    0.607
     7   6 C    3.854 --     8 C    1.120    11 C    1.022     6 C    0.773
                             5 C    0.306     1 Zr   0.259
     8   6 C    3.734 --     9 C    1.296     7 C    1.120    24 H    0.825
                             1 Zr   0.144    11 C    0.133
     9   6 C    3.815 --    10 C    1.336     8 C    1.296    25 H    0.828
                             1 Zr   0.101
    10   6 C    3.809 --     9 C    1.336    11 C    1.242    26 H    0.861
                             1 Zr   0.136
    11   6 C    3.481 --    10 C    1.242     7 C    1.022    27 H    0.727
                             8 C    0.133     1 Zr   0.123
    12   6 C    3.141 --    28 H    0.838    13 C    0.778     5 C    0.591
                            34 H    0.509
    13   6 C    2.827 --    29 H    0.847    14 C    0.847    12 C    0.778
    14   6 C    3.240 --    15 C    0.985    13 C    0.847    30 H    0.817
                            35 H    0.268
    15   6 C    3.438 --     4 N    0.995    14 C    0.985    16 C    0.859
                            17 C    0.134     1 Zr   0.133
    16   6 C    3.274 --    15 C    0.859    31 H    0.751    32 H    0.516
                            17 C    0.497    21 C    0.176
    17   6 C    3.685 --    21 C    1.015    18 C    0.753    16 C    0.497
                            20 C    0.462     1 Zr   0.426    15 C    0.134
    18   6 C    3.613 --    19 C    0.946    17 C    0.753    33 H    0.679
                            21 C    0.446     1 Zr   0.256    20 C    0.230
    19   6 C    3.208 --    20 C    1.048    18 C    0.946     5 C    0.341
                            34 H    0.214
    20   6 C    3.543 --    19 C    1.048    21 C    0.880    35 H    0.553
                            17 C    0.462    18 C    0.230
    21   6 C    3.505 --    17 C    1.015    20 C    0.880    36 H    0.660
                            18 C    0.446    16 C    0.176
    22   1 H    0.939 --     6 C    0.808
    23   1 H    0.955 --     6 C    0.791
    24   1 H    0.970 --     8 C    0.825
    25   1 H    0.967 --     9 C    0.828
    26   1 H    0.977 --    10 C    0.861
    27   1 H    0.970 --    11 C    0.727
    28   1 H    0.954 --    12 C    0.838
    29   1 H    0.934 --    13 C    0.847
    30   1 H    0.981 --    14 C    0.817
    31   1 H    0.968 --    16 C    0.751
    32   1 H    0.916 --    16 C    0.516     3 Cl   0.303
    33   1 H    0.924 --    18 C    0.679
    34   1 H    0.928 --    12 C    0.509    19 C    0.214     5 C    0.110
    35   1 H    0.989 --    20 C    0.553    14 C    0.268
    36   1 H    0.929 --    21 C    0.660
 ---------------------------------------------------------------------------

Topologies differ in total number of bonds
Writing topology from bond orders to xtbtopo.mol

molecular dipole:
                 x           y           z       tot (Debye)
 q only:       -0.716      -0.051       0.050
   full:       -0.928      -0.355      -0.832       3.294
molecular quadrupole (traceless):
                xx          xy          yy          xz          yz          zz
 q only:       15.843      -9.042      11.013      -5.677       6.921     -26.856
  q+dip:       10.403      -3.513       9.331      -3.579       3.807     -19.734
   full:       11.333      -3.092      10.163      -2.519       3.274     -21.496

           -------------------------------------------------
          |                Geometry Summary                 |
           -------------------------------------------------

      molecular mass/u    :      395.4378415
   center of mass at/Å    :       -0.3031697       0.0164744       0.4242527
  moments of inertia/u·Å² :        0.1493629E+04   0.1908548E+04   0.2373397E+04
rotational constants/cm⁻¹ :        0.1128636E-01   0.8832700E-02   0.7102745E-02

 * 6 selected distances

     #   Z          #   Z                                           value/Å
     1  40 Zr       2  17 Cl                                      2.2606697
     1  40 Zr       3  17 Cl                                      2.3388786
     1  40 Zr       4   7 N                                       2.0031407 (min)
     1  40 Zr       7   6 C                                       2.2776857
     1  40 Zr      17   6 C                                       2.0205234
     1  40 Zr      18   6 C                                       2.3777859 (max)

 * 3 distinct bonds (by element types)

   Z      Z             #   av. dist./Å        max./Å        min./Å
   6 C   40 Zr          3     2.2253317     2.3777859     2.0205234
   7 N   40 Zr          1     2.0031407     2.0031407     2.0031407
  17 Cl  40 Zr          2     2.2997742     2.3388786     2.2606697


optimized geometry written to: xtbopt.xyz


           -------------------------------------------------
          | TOTAL ENERGY              -55.184677015668 Eh   |
          | GRADIENT NORM               0.030910813929 Eh/α |
          | HOMO-LUMO GAP               0.052575433117 eV   |
           -------------------------------------------------

------------------------------------------------------------------------
 * finished run on 2026/03/05 at 12:14:06.997     
------------------------------------------------------------------------
 total:
 * wall-time:     0 d,  0 h,  0 min,  0.743 sec
 *  cpu-time:     0 d,  0 h,  0 min,  5.922 sec
 * ratio c/w:     7.973 speedup
 SCF:
 * wall-time:     0 d,  0 h,  0 min,  0.100 sec
 *  cpu-time:     0 d,  0 h,  0 min,  0.812 sec
 * ratio c/w:     8.125 speedup
 ANC optimizer:
 * wall-time:     0 d,  0 h,  0 min,  0.605 sec
 *  cpu-time:     0 d,  0 h,  0 min,  5.000 sec
 * ratio c/w:     8.258 speedup

