      -----------------------------------------------------------      
     |                   =====================                   |     
     |                           x T B                           |     
     |                   =====================                   |     
     |                         S. Grimme                         |     
     |          Mulliken Center for Theoretical Chemistry        |     
     |                    University of Bonn                     |     
      -----------------------------------------------------------      

   * xtb version 6.7.1 (edcfbbe) compiled by 'VssAdministrator@runnervmowedg' on 2025-09-04

   xtb is free software: you can redistribute it and/or modify it under
   the terms of the GNU Lesser General Public License as published by
   the Free Software Foundation, either version 3 of the License, or
   (at your option) any later version.
   
   xtb is distributed in the hope that it will be useful,
   but WITHOUT ANY WARRANTY; without even the implied warranty of
   MERCHANTABILITY or FITNESS FOR A PARTICULAR PURPOSE.  See the
   GNU Lesser General Public License for more details.
   
   Cite this work as:
   * C. Bannwarth, E. Caldeweyher, S. Ehlert, A. Hansen, P. Pracht,
     J. Seibert, S. Spicher, S. Grimme, WIREs Comput. Mol. Sci., 2020, 11,
     e01493. DOI: 10.1002/wcms.1493
   
   for GFN2-xTB:
   * C. Bannwarth, S. Ehlert and S. Grimme., J. Chem. Theory Comput., 2019,
     15, 1652-1671. DOI: 10.1021/acs.jctc.8b01176
   for GFN1-xTB:
   * S. Grimme, C. Bannwarth, P. Shushkov, J. Chem. Theory Comput., 2017,
     13, 1989-2009. DOI: 10.1021/acs.jctc.7b00118
   for GFN0-xTB:
   * P. Pracht, E. Caldeweyher, S. Ehlert, S. Grimme, ChemRxiv, 2019, preprint.
     DOI: 10.26434/chemrxiv.8326202.v1
   for GFN-FF:
   * S. Spicher and S. Grimme, Angew. Chem. Int. Ed., 2020, 59, 15665-15673.
     DOI: 10.1002/anie.202004239
   
   for ALPB and GBSA implicit solvation:
   * S. Ehlert, M. Stahn, S. Spicher, S. Grimme, J. Chem. Theory Comput.,
     2021, 17, 4250-4261. DOI: 10.1021/acs.jctc.1c00471
   
   for ddCOSMO and CPCM-X implicit solvation:
   * M. Stahn, S. Ehlert, S. Grimme, J. Phys. Chem. A,
     2023, XX, XXXX-XXXX. DOI: 10.1021/acs.jpca.3c04382
   
   for DFT-D4:
   * E. Caldeweyher, C. Bannwarth and S. Grimme, J. Chem. Phys., 2017,
     147, 034112. DOI: 10.1063/1.4993215
   * E. Caldeweyher, S. Ehlert, A. Hansen, H. Neugebauer, S. Spicher,
     C. Bannwarth and S. Grimme, J. Chem. Phys., 2019, 150, 154122.
     DOI: 10.1063/1.5090222
   * E. Caldeweyher, J.-M. Mewes, S. Ehlert and S. Grimme, Phys. Chem. Chem. Phys.
     2020, 22, 8499-8512. DOI: 10.1039/D0CP00502A
   
   for sTDA-xTB:
   * S. Grimme and C. Bannwarth, J. Chem. Phys., 2016, 145, 054103.
     DOI: 10.1063/1.4959605
   
   in the mass-spec context:
   * V. Asgeirsson, C. Bauer and S. Grimme, Chem. Sci., 2017, 8, 4879.
     DOI: 10.1039/c7sc00601b
   * J. Koopman and S. Grimme, ACS Omega 2019, 4, 12, 15120-15133.
     DOI: 10.1021/acsomega.9b02011
   
   for metadynamics refer to:
   * S. Grimme, J. Chem. Theory Comput., 2019, 155, 2847-2862
     DOI: 10.1021/acs.jctc.9b00143
   
   for SPH calculations refer to:
   * S. Spicher and S. Grimme, J. Chem. Theory Comput., 2021, 17, 1701-1714
     DOI: 10.1021/acs.jctc.0c01306
   
   for ONIOM refer to:
   * C. Plett, A. Katbashev, S. Ehlert, S. Grimme, M. Bursch,
     Phys. Chem. Chem. Phys., 2023, 25, 17860-17868. DOI: 10.1039/D3CP02178E
   
   for DIPRO refer to:
   * J. Kohn, N. Gildemeister, S. Grimme, D. Fazzi, A. Hansen,
     J. Chem. Phys., 2023, just accepted.
   
   for PTB refer to:
   * S. Grimme, M. Mueller, A. Hansen, J. Chem. Phys., 2023, 158, 124111.
     DOI: 10.1063/5.0137838
   
   with help from (in alphabetical order)
   P. Atkinson, C. Bannwarth, F. Bohle, G. Brandenburg, E. Caldeweyher
   M. Checinski, S. Dohm, S. Ehlert, S. Ehrlich, I. Gerasimov, C. Hölzer
   A. Katbashev, J. Kohn, J. Koopman, C. Lavigne, S. Lehtola, F. März, M. Müller,
   F. Musil, H. Neugebauer, J. Pisarek, C. Plett, P. Pracht, F. Pultar,
   J. Seibert, P. Shushkov, S. Spicher, M. Stahn, M. Steiner, T. Strunk,
   J. Stückrath, T. Rose, and J. Unsleber
   
 * started run on 2026/03/05 at 12:14:09.065     
   ID    Z sym.   atoms
    1   40 Zr     1
    2   17 Cl     2, 3
    3    7 N      4
    4    6 C      5-21
    5    1 H      22-36

           -------------------------------------------------
          |                Calculation Setup                |
           -------------------------------------------------

          program call               : xtb qc_relax_6.xyz --opt --chrg 0 --uhf 0 --cycles 5 --input xcontrol
          coordinate file            : qc_relax_6.xyz
          omp threads                :                    12


molecular fragmentation (1/2 indicates fragments):
111111111112221111111222222222222222
# atoms in fragment 1/2:    18    18
 fragment masses (1/2) :      344.29       51.15
CMA distance (Bohr)    :   6.434
constraining FC (au)   :  1.0000

           -------------------------------------------------
          |                 G F N 2 - x T B                 |
           -------------------------------------------------

        Reference                      10.1021/acs.jctc.8b01176
      * Hamiltonian:
        H0-scaling (s, p, d)           1.850000    2.230000    2.230000
        zeta-weighting                 0.500000
      * Dispersion:
        s8                             2.700000
        a1                             0.520000
        a2                             5.000000
        s9                             5.000000
      * Repulsion:
        kExp                           1.500000    1.000000
        rExp                           1.000000
      * Coulomb:
        alpha                          2.000000
        third order                    shell-resolved
        anisotropic                    true
        a3                             3.000000
        a5                             4.000000
        cn-shift                       1.200000
        cn-exp                         4.000000
        max-rad                        5.000000

q/qsh data taken from xtbrestart
CAMM data taken from xtbrestart

          ...................................................
          :                      SETUP                      :
          :.................................................:
          :  # basis functions                 117          :
          :  # atomic orbitals                 114          :
          :  # shells                           60          :
          :  # electrons                       106          :
          :  max. iterations                   250          :
          :  Hamiltonian                  GFN2-xTB          :
          :  restarted?                       true          :
          :  GBSA solvation                  false          :
          :  PC potential                    false          :
          :  electronic temp.          300.0000000     K    :
          :  accuracy                    1.0000000          :
          :  -> integral cutoff          0.2500000E+02      :
          :  -> integral neglect         0.1000000E-07      :
          :  -> SCF convergence          0.1000000E-05 Eh   :
          :  -> wf. convergence          0.1000000E-03 e    :
          :  Broyden damping             0.4000000          :
          :  net charge                          0          :
          :  unpaired electrons                  0          :
          ...................................................

 iter      E             dE          RMSdq      gap      omega  full diag
   1    -55.0664295 -0.550664E+02  0.572E-01    0.09       0.0  T
   2    -54.7254668  0.340963E+00  0.188E+00    0.25       1.0  T
   3    -55.0423482 -0.316881E+00  0.649E-01    0.13       1.0  T
   4    -55.0608930 -0.185448E-01  0.490E-01    0.05       1.0  T
   5    -55.0441609  0.167321E-01  0.543E-01    0.08       1.0  T
   6    -55.0682903 -0.241294E-01  0.358E-01    0.07       1.0  T
   7    -55.0746949 -0.640461E-02  0.167E-01    0.05       1.0  T
   8    -55.0753469 -0.651952E-03  0.145E-01    0.05       1.0  T
   9    -55.0763645 -0.101763E-02  0.952E-02    0.05       1.0  T
  10    -55.0767758 -0.411275E-03  0.620E-02    0.05       1.0  T
  11    -55.0769903 -0.214545E-03  0.328E-02    0.05       1.0  T
  12    -55.0770056 -0.152667E-04  0.286E-02    0.05       1.0  T
  13    -55.0770442 -0.386185E-04  0.172E-02    0.05       1.0  T
  14    -55.0770348  0.935871E-05  0.172E-02    0.05       1.0  T
  15    -55.0770530 -0.181227E-04  0.918E-03    0.05       1.8  T
  16    -55.0770531 -0.159419E-06  0.851E-03    0.05       2.0  T
  17    -55.0770591 -0.596266E-05  0.443E-03    0.05       3.8  T
  18    -55.0770593 -0.233015E-06  0.312E-03    0.05       5.3  T
  19    -55.0770595 -0.178622E-06  0.225E-03    0.05       7.4  T
  20    -55.0770596 -0.125816E-06  0.175E-03    0.05       9.5  T
  21    -55.0770598 -0.171354E-06  0.105E-03    0.05      15.8  T
  22    -55.0770598  0.157595E-07  0.951E-04    0.05      17.5  T
  23    -55.0770598 -0.472039E-07  0.510E-04    0.05      32.7  T

   *** convergence criteria satisfied after 23 iterations ***

         #    Occupation            Energy/Eh            Energy/eV
      -------------------------------------------------------------
         1        2.0000           -1.1103053             -30.2129
       ...           ...                  ...                  ...
        47        2.0000           -0.4047576             -11.0140
        48        2.0000           -0.3999766             -10.8839
        49        2.0000           -0.3976230             -10.8199
        50        2.0000           -0.3903149             -10.6210
        51        2.0000           -0.3871138             -10.5339
        52        1.9994           -0.3780093             -10.2862
        53        1.4666           -0.3712264             -10.1016 (HOMO)
        54        0.5340           -0.3693060             -10.0493 (LUMO)
        55        0.0000           -0.3543963              -9.6436
        56                         -0.3512943              -9.5592
        57                         -0.3464115              -9.4263
        58                         -0.3413662              -9.2890
       ...                                ...                  ...
       114                          3.3164620              90.2455
      -------------------------------------------------------------
                  HL-Gap            0.0019204 Eh            0.0523 eV
             Fermi-level           -0.3702655 Eh          -10.0754 eV

 SCC (total)                   0 d,  0 h,  0 min,  0.140 sec
 SCC setup                      ...        0 min,  0.001 sec (  0.396%)
 Dispersion                     ...        0 min,  0.001 sec (  0.576%)
 classical contributions        ...        0 min,  0.000 sec (  0.132%)
 integral evaluation            ...        0 min,  0.009 sec (  6.413%)
 iterations                     ...        0 min,  0.115 sec ( 82.270%)
 molecular gradient             ...        0 min,  0.014 sec (  9.946%)
 printout                       ...        0 min,  0.000 sec (  0.240%)

         :::::::::::::::::::::::::::::::::::::::::::::::::::::
         ::                     SUMMARY                     ::
         :::::::::::::::::::::::::::::::::::::::::::::::::::::
         :: total energy             -54.903458442138 Eh    ::
         :: gradient norm              0.176002076818 Eh/a0 ::
         :: HOMO-LUMO gap              0.052257034835 eV    ::
         ::.................................................::
         :: SCC energy               -55.074911815434 Eh    ::
         :: -> isotropic ES           -0.059045375355 Eh    ::
         :: -> anisotropic ES         -0.008009576252 Eh    ::
         :: -> anisotropic XC          0.026823117944 Eh    ::
         :: -> dispersion             -0.063072161007 Eh    ::
         :: repulsion energy           0.171453373296 Eh    ::
         :: add. restraining           0.000000000000 Eh    ::
         :: total charge               0.000000000166 e     ::
         :::::::::::::::::::::::::::::::::::::::::::::::::::::

      ----------------------------------------------------------- 
     |                   =====================                   |
     |                        A N C O P T                        |
     |                   =====================                   |
     |               Approximate Normal Coordinate               |
     |                Rational Function Optimizer                |
      ----------------------------------------------------------- 
      ----------------------------------------------------------- 
     |                   =====================                   |
     |                        A N C O P T                        |
     |                   =====================                   |
     |               Approximate Normal Coordinate               |
     |                Rational Function Optimizer                |
      ----------------------------------------------------------- 

          ...................................................
          :                      SETUP                      :
          :.................................................:
          :   optimization level            normal          :
          :   max. optcycles                     5          :
          :   ANC micro-cycles                   5          :
          :   degrees of freedom               102          :
          :.................................................:
          :   RF solver                   davidson          :
          :   write xtbopt.log                true          :
          :   linear?                        false          :
          :   energy convergence         0.5000000E-05 Eh   :
          :   grad. convergence          0.1000000E-02 Eh/α :
          :   maxmium RF displ.          1.0000000          :
          :   Hlow (freq-cutoff)         0.1000000E-01      :
          :   Hmax (freq-cutoff)         5.0000000          :
          :   S6 in model hess.         20.0000000          :
          ...................................................

generating ANC from exact Hessian ...
Using Lindh-Hessian (1995)
 Shifting diagonal of input Hessian by    1.3790249601037963E-002
 Lowest  eigenvalues of input Hessian
    0.010000    0.011866    0.012862    0.013394    0.013632    0.000000
    0.000000    0.000000    0.000000    0.000000    0.000000    0.013867
    0.014050    0.014140    0.014178    0.014256    0.014450    0.014599
 Highest eigenvalues
    1.538668    1.723358    1.760775    1.920157    2.283716    2.365789


........................................................................
.............................. CYCLE    1 ..............................
........................................................................

 iter      E             dE          RMSdq      gap      omega  full diag
   1    -55.0770598 -0.550771E+02  0.531E-04    0.05       0.0  T
   2    -55.0770569  0.287574E-05  0.527E-03    0.05       3.2  T
   3    -55.0770598 -0.286179E-05  0.656E-04    0.05      25.4  T
   4    -55.0770598 -0.251572E-07  0.380E-04    0.05      43.8  T
   5    -55.0770598  0.282671E-08  0.382E-04    0.05      43.6  T
     SCC iter.                  ...        0 min,  0.026 sec
     gradient                   ...        0 min,  0.021 sec
 * total energy  :   -54.9034584 Eh     change       -0.1961268E-08 Eh
   gradient norm :     0.1760020 Eh/α   predicted     0.0000000E+00 (-100.00%)
   displ. norm   :     0.1705783 α      lambda       -0.2044739E-01
   maximum displ.:     0.0598007 α      in ANC's #86, #101, #84, ...

........................................................................
.............................. CYCLE    2 ..............................
........................................................................

 iter      E             dE          RMSdq      gap      omega  full diag
   1    -55.0585986 -0.550586E+02  0.266E-01    0.04       0.0  T
   2    -54.9632874  0.953112E-01  0.912E-01    0.21       1.0  T
   3    -55.0346330 -0.713456E-01  0.521E-01    0.04       1.0  T
   4    -55.0562818 -0.216489E-01  0.272E-01    0.07       1.0  T
   5    -55.0533748  0.290699E-02  0.339E-01    0.02       1.0  T
   6    -55.0590624 -0.568753E-02  0.157E-01    0.07       1.0  T
   7    -55.0599980 -0.935589E-03  0.125E-01    0.06       1.0  T
   8    -55.0601175 -0.119569E-03  0.106E-01    0.06       1.0  T
   9    -55.0606383 -0.520728E-03  0.748E-02    0.06       1.0  T
  10    -55.0609752 -0.336915E-03  0.353E-02    0.05       1.0  T
  11    -55.0610751 -0.999089E-04  0.145E-02    0.05       1.1  T
  12    -55.0610834 -0.831720E-05  0.974E-03    0.05       1.7  T
  13    -55.0610835 -0.749533E-07  0.891E-03    0.05       1.9  T
  14    -55.0610855 -0.207025E-05  0.650E-03    0.05       2.6  T
  15    -55.0610875 -0.190278E-05  0.378E-03    0.05       4.4  T
  16    -55.0610881 -0.615320E-06  0.237E-03    0.05       7.0  T
  17    -55.0610881 -0.619892E-07  0.203E-03    0.05       8.2  T
  18    -55.0610882 -0.906991E-07  0.158E-03    0.05      10.6  T
  19    -55.0610883 -0.805983E-07  0.100E-03    0.05      16.6  T
  20    -55.0610883 -0.298264E-07  0.644E-04    0.05      25.9  T
  21    -55.0610883  0.145553E-07  0.696E-04    0.05      23.9  T
     SCC iter.                  ...        0 min,  0.100 sec
     gradient                   ...        0 min,  0.017 sec
 * total energy  :   -54.8989872 Eh     change        0.4471281E-02 Eh
   gradient norm :     0.0224732 Eh/α   predicted    -0.1052214E-01 (-335.33%)
   displ. norm   :     0.2093105 α      lambda       -0.1407404E-02
   maximum displ.:     0.0713859 α      in ANC's #3, #25, #4, ...

........................................................................
.............................. CYCLE    3 ..............................
........................................................................

 iter      E             dE          RMSdq      gap      omega  full diag
   1    -55.0509202 -0.550509E+02  0.162E-01    0.05       0.0  T
   2    -55.0473635  0.355672E-02  0.247E-01    0.06       1.0  T
   3    -55.0490199 -0.165634E-02  0.177E-01    0.06       1.0  T
   4    -55.0437654  0.525447E-02  0.276E-01    0.04       1.0  T
   5    -55.0403957  0.336972E-02  0.325E-01    0.09       1.0  T
   6    -55.0506480 -0.102523E-01  0.893E-02    0.05       1.0  T
   7    -55.0510783 -0.430347E-03  0.460E-02    0.05       1.0  T
   8    -55.0511826 -0.104296E-03  0.259E-02    0.05       1.0  T
   9    -55.0512253 -0.426806E-04  0.150E-02    0.05       1.1  T
  10    -55.0512325 -0.718184E-05  0.123E-02    0.05       1.4  T
  11    -55.0512347 -0.220329E-05  0.103E-02    0.05       1.6  T
  12    -55.0512374 -0.274646E-05  0.705E-03    0.05       2.4  T
  13    -55.0512414 -0.394818E-05  0.359E-03    0.05       4.6  T
  14    -55.0512418 -0.385195E-06  0.264E-03    0.05       6.3  T
  15    -55.0512418 -0.593839E-08  0.223E-03    0.05       7.5  T
  16    -55.0512419 -0.937023E-07  0.171E-03    0.05       9.8  T
  17    -55.0512420 -0.164964E-06  0.108E-03    0.05      15.4  T
  18    -55.0512421 -0.668751E-07  0.706E-04    0.05      23.6  T
  19    -55.0512421 -0.297945E-09  0.616E-04    0.05      27.0  T
     SCC iter.                  ...        0 min,  0.084 sec
     gradient                   ...        0 min,  0.014 sec
 * total energy  :   -54.8897566 Eh     change        0.9230577E-02 Eh
   gradient norm :     0.0091208 Eh/α   predicted    -0.7349131E-03 (-107.96%)
   displ. norm   :     0.5300329 α      lambda       -0.2170494E-02
   maximum displ.:     0.1797667 α      in ANC's #3, #25, #4, ...

........................................................................
.............................. CYCLE    4 ..............................
........................................................................

 iter      E             dE          RMSdq      gap      omega  full diag
   1    -55.0288309 -0.550288E+02  0.405E-01    0.06       0.0  T
   2    -54.9897498  0.390810E-01  0.717E-01    0.04       1.0  T
   3    -54.9730544  0.166954E-01  0.759E-01    0.17       1.0  T
   4    -54.9882050 -0.151506E-01  0.666E-01    0.03       1.0  T
   5    -55.0100160 -0.218109E-01  0.533E-01    0.09       1.0  T
   6    -55.0297842 -0.197682E-01  0.148E-01    0.06       1.0  T
   7    -55.0305657 -0.781443E-03  0.873E-02    0.06       1.0  T
   8    -55.0308720 -0.306373E-03  0.635E-02    0.06       1.0  T
   9    -55.0307491  0.122975E-03  0.805E-02    0.07       1.0  T
  10    -55.0308873 -0.138235E-03  0.638E-02    0.06       1.0  T
  11    -55.0309884 -0.101080E-03  0.477E-02    0.06       1.0  T
  12    -55.0311436 -0.155234E-03  0.187E-02    0.06       1.0  T
  13    -55.0311686 -0.249763E-04  0.972E-03    0.06       1.7  T
  14    -55.0311684  0.212475E-06  0.809E-03    0.06       2.1  T
  15    -55.0311694 -0.105634E-05  0.760E-03    0.06       2.2  T
  16    -55.0311710 -0.158560E-05  0.533E-03    0.06       3.1  T
  17    -55.0311728 -0.176122E-05  0.295E-03    0.06       5.6  T
  18    -55.0311728 -0.554284E-07  0.224E-03    0.06       7.4  T
  19    -55.0311728 -0.183487E-07  0.208E-03    0.06       8.0  T
  20    -55.0311729 -0.168369E-07  0.191E-03    0.06       8.7  T
  21    -55.0311731 -0.211782E-06  0.118E-03    0.06      14.1  T
  22    -55.0311731 -0.407631E-08  0.803E-04    0.06      20.8  T
  23    -55.0311731 -0.464864E-07  0.441E-04    0.06      37.8  T
     SCC iter.                  ...        0 min,  0.122 sec
     gradient                   ...        0 min,  0.017 sec
 * total energy  :   -54.8697678 Eh     change        0.1998880E-01 Eh
   gradient norm :     0.0210299 Eh/α   predicted    -0.1390615E-02 (-106.96%)
   displ. norm   :     0.7201520 α      lambda       -0.2427505E-02
   maximum displ.:     0.2402394 α      in ANC's #4, #25, #3, ...

........................................................................
.............................. CYCLE    5 ..............................
........................................................................

 iter      E             dE          RMSdq      gap      omega  full diag
   1    -54.9977142 -0.549977E+02  0.598E-01    0.08       0.0  T
   2    -54.8009180  0.196796E+00  0.145E+00    0.08       1.0  T
   3    -54.8934434 -0.925254E-01  0.101E+00    0.25       1.0  T
   4    -54.9703747 -0.769313E-01  0.628E-01    0.05       1.0  T
   5    -54.9602094  0.101653E-01  0.697E-01    0.05       1.0  T
   6    -54.9982714 -0.380620E-01  0.292E-01    0.08       1.0  T
   7    -55.0033215 -0.505010E-02  0.142E-01    0.07       1.0  T
   8    -55.0043351 -0.101361E-02  0.941E-02    0.06       1.0  T
   9    -55.0039550  0.380131E-03  0.118E-01    0.07       1.0  T
  10    -55.0045533 -0.598370E-03  0.648E-02    0.06       1.0  T
  11    -55.0046322 -0.789043E-04  0.521E-02    0.06       1.0  T
  12    -55.0048470 -0.214720E-03  0.234E-02    0.06       1.0  T
  13    -55.0048707 -0.237610E-04  0.138E-02    0.06       1.2  T
  14    -55.0048633  0.742206E-05  0.154E-02    0.06       1.1  T
  15    -55.0048726 -0.927568E-05  0.967E-03    0.06       1.7  T
  16    -55.0048730 -0.405452E-06  0.810E-03    0.06       2.1  T
  17    -55.0048768 -0.377042E-05  0.454E-03    0.06       3.7  T
  18    -55.0048764  0.305001E-06  0.430E-03    0.06       3.9  T
  19    -55.0048766 -0.203227E-06  0.385E-03    0.06       4.3  T
  20    -55.0048770 -0.372728E-06  0.251E-03    0.06       6.6  T
  21    -55.0048772 -0.219473E-06  0.204E-03    0.06       8.2  T
  22    -55.0048773 -0.142917E-07  0.188E-03    0.06       8.9  T
  23    -55.0048774 -0.172341E-06  0.105E-03    0.06      15.8  T
  24    -55.0048775 -0.609575E-07  0.582E-04    0.06      28.6  T
  25    -55.0048775 -0.154398E-07  0.362E-04    0.06      46.0  T
     SCC iter.                  ...        0 min,  0.079 sec
     gradient                   ...        0 min,  0.013 sec
 * total energy  :   -54.8431365 Eh     change        0.2663128E-01 Eh
   gradient norm :     0.0316303 Eh/α   predicted    -0.1843314E-02 (-106.92%)
   displ. norm   :     0.8353457 α      lambda       -0.3168617E-02
   maximum displ.:     0.2942560 α      in ANC's #4, #25, #3, ...

   *** FAILED TO CONVERGE GEOMETRY OPTIMIZATION IN 5 ITERATIONS ***


 ANCopt (total)                0 d,  0 h,  0 min,  0.551 sec
 optimizer setup                ...        0 min,  0.001 sec (  0.105%)
 model hessian                  ...        0 min,  0.021 sec (  3.767%)
 ANC generation                 ...        0 min,  0.003 sec (  0.607%)
 coordinate transformation      ...        0 min,  0.000 sec (  0.024%)
 single point calculation       ...        0 min,  0.520 sec ( 94.478%)
 optimization log               ...        0 min,  0.002 sec (  0.444%)
 hessian update                 ...        0 min,  0.001 sec (  0.138%)
 rational function              ...        0 min,  0.002 sec (  0.327%)

================
 final structure:
================
36
 xtb: 6.7.1 (edcfbbe)
Zr          -0.24243103426189        0.62176759727943       -0.03790933787097
Cl          -0.28206395017193        0.21813134346185       -2.26186729208314
Cl           2.12579034826274        0.53321955842007       -0.16337493070964
N            0.04202910627123        0.60192123772352        1.99484655933679
C           -2.19991078291438        0.37296657559016        1.72346111140011
C           -2.37847132912846        2.09592688422134        2.73642575017892
C           -1.42524959957232        1.93359096069479        1.03383757476430
C           -2.37920632589146        1.94529792100025       -0.32590705259944
C           -1.42864270720555        2.64809073132748       -1.49393174405830
C            0.03952803352614        3.13050970605968       -0.84489978634209
C           -0.35180670996468        3.19569678292213        0.78747494027704
C           -2.32442157143420       -0.36733419054866        3.55810991563113
C           -0.67619567969774       -1.08307110980108        4.47650114470143
C            0.11161106931879       -2.46445227221758        3.28504887097382
C            0.51791007154874       -1.28593646124516        1.85430327689602
C            1.80592517586105       -2.37905810007173        0.79087773059607
C            0.33571465502187       -1.29981088551897        0.00436495350720
C           -1.37455557792286       -1.24107613414639       -0.57998978425589
C           -2.21401064101020       -1.28053964772045        0.90233130639541
C           -1.01796857187940       -2.50078235454546        1.10371336986329
C           -0.08088740736782       -2.81021343544494       -0.32599139735543
H           -0.74518190962902        1.96349380151322        2.90845717503771
H           -3.50927880410896        0.99067809157305        2.74618030974979
H           -2.82787574828689        0.12831283144156       -0.57129387913070
H           -1.00325466529278        2.02028113681309       -3.12417950505039
H            1.73263729481904        2.80917195711941       -1.41633212848998
H            1.13185653275104        1.85344898871362        1.33515199727496
H           -3.91427305498815        0.53606767622378        4.40090072832933
H           -1.48274120705359       -2.67249913340551        5.92980913522710
H            1.50551081778848       -4.12474623682090        3.28443802685384
H            0.97719242112999       -3.02461535921262        2.04059391336151
H            2.88368041207267       -1.31400245051871        0.03983859576739
H           -1.48328935216810       -1.63812915447649       -2.30058901878251
H           -2.50216937725819       -1.60289690749566        2.52439214621716
H           -0.97875228835068       -3.59521599715851        2.54868807601389
H           -0.43918364281203       -3.61137895175030       -2.03724275162714

 Bond Distances (Angstroems)
 ---------------------------
Zr1-Cl2=2.2606       Zr1-Cl3=2.3732       Zr1-N4=2.0527        Zr1-C5=2.6450        Zr1-C7=2.0661        Zr1-C8=2.5299        
Zr1-C9=2.7628        Zr1-C10=2.6504       Zr1-C11=2.7052       Zr1-C15=2.7925       Zr1-C17=2.0071       Zr1-C18=2.2463       
Zr1-C19=2.8965       Zr1-H27=2.3002       Cl2-Zr1=2.2606       Cl3-Zr1=2.3732       N4-Zr1=2.0527        C5-Zr1=2.6450        
C5-C7=1.8738         C5-C19=1.8462        C7-Zr1=2.0661        C7-C5=1.8738         C7-C8=1.6610         C7-C11=1.6751        
C8-Zr1=2.5299        C8-C7=1.6610         C8-C9=1.6619         C9-Zr1=2.7628        C9-C8=1.6619         C9-C10=1.6762        
C10-Zr1=2.6504       C10-C9=1.6762        C10-C11=1.6799       C11-Zr1=2.7052       C11-C7=1.6751        C11-C10=1.6799       
C14-C15=1.8976       C15-Zr1=2.7925       C15-C14=1.8976       C15-C17=1.8589       C17-Zr1=2.0071       C17-C15=1.8589       
C17-C18=1.8083       C17-C21=1.6013       C18-Zr1=2.2463       C18-C17=1.8083       C18-C19=1.7040       C19-Zr1=2.8965       
C19-C5=1.8462        C19-C18=1.7040       C19-C20=1.7205       C20-C19=1.7205       C20-C21=1.7372       C21-C17=1.6013       
C21-C20=1.7372       H27-Zr1=2.3002       
 C  C  Rav=1.7430 sigma=0.0918  Rmin=1.6013  Rmax=1.8976    14
 Zr H  Rav=2.3002 sigma=0.0000  Rmin=2.3002  Rmax=2.3002     1
 Zr C  Rav=2.5302 sigma=0.2975  Rmin=2.0071  Rmax=2.8965    10
 Zr N  Rav=2.0527 sigma=0.0000  Rmin=2.0527  Rmax=2.0527     1
 Zr Cl Rav=2.3169 sigma=0.0563  Rmin=2.2606  Rmax=2.3732     2

 selected bond angles (degree)
 --------------------
Cl3-Zr1-Cl2= 87.64             N4-Zr1-Cl2=167.15              N4-Zr1-Cl3= 85.05              C5-Zr1-Cl2=128.71              
C5-Zr1-Cl3=140.37              C5-Zr1-N4= 56.10               C7-Zr1-Cl2=127.85              C7-Zr1-Cl3=128.49              
C7-Zr1-N4= 64.64               C7-Zr1-C5= 44.81               C8-Zr1-Cl2= 88.09              C8-Zr1-Cl3=148.91              
C8-Zr1-N4=103.58               C8-Zr1-C5= 60.00               C8-Zr1-C7= 40.83               C9-Zr1-Cl2= 66.73              
C9-Zr1-Cl3=115.34              C9-Zr1-N4=126.05               C9-Zr1-C5= 95.87               C9-Zr1-C7= 64.02               
C9-Zr1-C8= 36.26               C10-Zr1-Cl2= 82.61             C10-Zr1-Cl3= 85.01             C10-Zr1-N4=107.21              
C10-Zr1-C5=111.75              C10-Zr1-C7= 67.53              C10-Zr1-C8= 63.90              C10-Zr1-C9= 36.00              
C11-Zr1-Cl2=117.99             C11-Zr1-Cl3= 95.28             C11-Zr1-N4= 73.30              C11-Zr1-C5= 81.74              
C11-Zr1-C7= 38.23              C11-Zr1-C8= 60.19              C11-Zr1-C9= 56.33              C11-Zr1-C10= 36.54             
C15-Zr1-Cl2=123.33             C15-Zr1-Cl3= 74.85             C15-Zr1-N4= 44.33              C15-Zr1-C5= 71.70              
C15-Zr1-C7=103.78              C15-Zr1-C8=131.64              C15-Zr1-C9=167.18              C15-Zr1-C10=145.49             
C15-Zr1-C11=117.02             C17-Zr1-Cl2= 81.65             C17-Zr1-Cl3= 71.21             C17-Zr1-N4= 85.98              
C17-Zr1-C5= 96.26              C17-Zr1-C7=139.63              C17-Zr1-C8=138.29              C17-Zr1-C9=146.82              
C17-Zr1-C10=151.88             C17-Zr1-C11=156.37             C17-Zr1-C15= 41.69             C18-Zr1-Cl2= 66.78             
C18-Zr1-Cl3=117.34             C18-Zr1-N4=107.51              C18-Zr1-C5= 73.12              C18-Zr1-C7=111.30              
C18-Zr1-C8= 88.89              C18-Zr1-C9=105.35              C18-Zr1-C10=139.92             C18-Zr1-C11=147.38             
C18-Zr1-C15= 74.59             C18-Zr1-C17= 49.93             C19-Zr1-Cl2=100.96             C19-Zr1-Cl3=132.21             
C19-Zr1-N4= 76.50              C19-Zr1-C5= 38.59              C19-Zr1-C7= 81.89              C19-Zr1-C8= 78.79              
C19-Zr1-C9=111.13              C19-Zr1-C10=142.46             C19-Zr1-C11=119.89             C19-Zr1-C15= 61.10             
C19-Zr1-C17= 63.93             C19-Zr1-C18= 35.97             H27-Zr1-Cl2=133.89             H27-Zr1-Cl3= 57.00             
H27-Zr1-N4= 48.03              H27-Zr1-C5= 95.45              H27-Zr1-C7= 72.09              H27-Zr1-C8=107.00              
H27-Zr1-C9=100.28              H27-Zr1-C10= 67.13             H27-Zr1-C11= 48.13             H27-Zr1-C15= 78.38             
H27-Zr1-C17=109.15             H27-Zr1-C18=152.78             H27-Zr1-C19=124.37             C7-C5-Zr1= 51.00               
C19-C5-Zr1= 78.10              C19-C5-C7=125.83               C5-C7-Zr1= 84.19               C8-C7-Zr1= 84.76               
C8-C7-C5= 94.00                C11-C7-Zr1= 92.02              C11-C7-C5=161.19               C11-C7-C8=104.02               
C7-C8-Zr1= 54.41               C9-C8-Zr1= 79.52               C9-C8-C7=104.47                C8-C9-Zr1= 64.22               
C10-C9-Zr1= 68.34              C10-C9-C8=110.52               C9-C10-Zr1= 75.66              C11-C10-Zr1= 73.51             
C11-C10-C9=100.57              

 selected dihedral angles (degree)
 ---------------------------------
C7-C5-Zr1-Cl2=251.99          C7-C5-Zr1-Cl3= 99.74          C7-C5-Zr1-N4= 86.81           C7-C5-Zr1-C8=311.19           
C7-C5-Zr1-C9=316.74           C7-C5-Zr1-C10=350.17          C7-C5-Zr1-C11= 11.43          C7-C5-Zr1-C15=133.53          
C7-C5-Zr1-C17=167.68          C7-C5-Zr1-C18=212.45          C7-C5-Zr1-C19=199.85          C7-C5-Zr1-H27= 57.69          
C19-C5-Zr1-Cl2= 52.14         C19-C5-Zr1-Cl3=259.89         C19-C5-Zr1-N4=246.96          C19-C5-Zr1-C7=160.15          
C19-C5-Zr1-C8=111.34          C19-C5-Zr1-C9=116.89          C19-C5-Zr1-C10=150.32         C19-C5-Zr1-C11=171.58         
C19-C5-Zr1-C15=293.68         C19-C5-Zr1-C17=327.84         C19-C5-Zr1-C18= 12.60         C19-C5-Zr1-H27=217.84         
C5-C7-Zr1-Cl2=109.97          C5-C7-Zr1-Cl3=233.43          C5-C7-Zr1-N4=293.51           C5-C7-Zr1-C8= 94.57           
C5-C7-Zr1-C9=130.68           C5-C7-Zr1-C10=170.11          C5-C7-Zr1-C11=198.47          C5-C7-Zr1-C15=314.87          
C5-C7-Zr1-C17=340.89          C5-C7-Zr1-C18= 33.44          C5-C7-Zr1-C19= 12.35          C5-C7-Zr1-H27=242.16          
C8-C7-Zr1-Cl2= 15.39          C8-C7-Zr1-Cl3=138.86          C8-C7-Zr1-N4=198.93           C8-C7-Zr1-C5=265.43           
C8-C7-Zr1-C9= 36.11           C8-C7-Zr1-C10= 75.54          C8-C7-Zr1-C11=103.90          C8-C7-Zr1-C15=220.30          
C8-C7-Zr1-C17=246.32          C8-C7-Zr1-C18=298.87          C8-C7-Zr1-C19=277.78          C8-C7-Zr1-H27=147.58          
C11-C7-Zr1-Cl2=271.49         C11-C7-Zr1-Cl3= 34.96         C11-C7-Zr1-N4= 95.03          C11-C7-Zr1-C5=161.53          
C11-C7-Zr1-C8=256.10          C11-C7-Zr1-C9=292.21          C11-C7-Zr1-C10=331.64         C11-C7-Zr1-C15=116.40         
C11-C7-Zr1-C17=142.42         C11-C7-Zr1-C18=194.97         C11-C7-Zr1-C19=173.88         C11-C7-Zr1-H27= 43.68         
Zr1-C7-C5-C19=335.81          C8-C7-C5-Zr1= 84.31           C8-C7-C5-C19= 60.12           C11-C7-C5-Zr1=280.88          
C11-C7-C5-C19=256.69          C7-C8-Zr1-Cl2=192.11          C7-C8-Zr1-Cl3=274.34          C7-C8-Zr1-N4= 17.56           
C7-C8-Zr1-C5= 54.22           C7-C8-Zr1-C9=243.59           C7-C8-Zr1-C10=274.81          C7-C8-Zr1-C11=316.19          
C7-C8-Zr1-C15= 57.20          C7-C8-Zr1-C17=116.93          C7-C8-Zr1-C18=125.31          C7-C8-Zr1-C19= 90.54          
C7-C8-Zr1-H27=327.77          C9-C8-Zr1-Cl2=308.51          C9-C8-Zr1-Cl3= 30.74          C9-C8-Zr1-N4=133.97           
C9-C8-Zr1-C5=170.63           C9-C8-Zr1-C7=116.41           C9-C8-Zr1-C10= 31.22          C9-C8-Zr1-C11= 72.59          
C9-C8-Zr1-C15=173.61          C9-C8-Zr1-C17=233.33          C9-C8-Zr1-C18=241.72          C9-C8-Zr1-C19=206.94          
C9-C8-Zr1-H27= 84.17          Zr1-C8-C7-C5=276.22           Zr1-C8-C7-C11= 90.78          C9-C8-C7-Zr1=294.56           
C9-C8-C7-C5=210.77            C9-C8-C7-C11= 25.33           C8-C9-Zr1-Cl2=121.65          C8-C9-Zr1-Cl3=196.98          
C8-C9-Zr1-N4=300.08           C8-C9-Zr1-C5=351.85           C8-C9-Zr1-C7=319.35           C8-C9-Zr1-C10=232.36          
C8-C9-Zr1-C11=275.85          C8-C9-Zr1-C15=337.99          C8-C9-Zr1-C17=102.80          C8-C9-Zr1-C18= 65.92          
C8-C9-Zr1-C19= 28.46          C8-C9-Zr1-H27=255.21          C10-C9-Zr1-Cl2=249.29         C10-C9-Zr1-Cl3=324.63         
C10-C9-Zr1-N4= 67.72          C10-C9-Zr1-C5=119.49          C10-C9-Zr1-C7= 86.99          C10-C9-Zr1-C8=127.64          
C10-C9-Zr1-C11= 43.49         C10-C9-Zr1-C15=105.63         C10-C9-Zr1-C17=230.44         C10-C9-Zr1-C18=193.57         
C10-C9-Zr1-C19=156.10         C10-C9-Zr1-H27= 22.85         Zr1-C9-C8-C7= 48.78           C10-C9-C8-Zr1=308.20          
C10-C9-C8-C7=356.99           C9-C10-Zr1-Cl2= 60.06         C9-C10-Zr1-Cl3=148.32         C9-C10-Zr1-N4=231.56          
C9-C10-Zr1-C5=291.22          C9-C10-Zr1-C7=283.73          C9-C10-Zr1-C8=328.56          C9-C10-Zr1-C11=254.15         
C9-C10-Zr1-C15=202.16         C9-C10-Zr1-C17=116.45         C9-C10-Zr1-C18= 20.57         C9-C10-Zr1-C19=321.67         
C9-C10-Zr1-H27=204.50         C11-C10-Zr1-Cl2=165.91        C11-C10-Zr1-Cl3=254.17        C11-C10-Zr1-N4=337.41         
C11-C10-Zr1-C5= 37.07         C11-C10-Zr1-C7= 29.58         C11-C10-Zr1-C8= 74.41         C11-C10-Zr1-C9=105.85         
C11-C10-Zr1-C15=308.01        C11-C10-Zr1-C17=222.30        C11-C10-Zr1-C18=126.42        C11-C10-Zr1-C19= 67.52        
C11-C10-Zr1-H27=310.35        Zr1-C10-C9-C8= 49.58          C11-C10-C9-Zr1=290.23         C11-C10-C9-C8=339.81          

 CMA Distance (Angstroems)
 ---------------------------
R(CMA):  3.3518
           -------------------------------------------------
          |                Final Singlepoint                |
           -------------------------------------------------

          ...................................................
          :                      SETUP                      :
          :.................................................:
          :  # basis functions                 117          :
          :  # atomic orbitals                 114          :
          :  # shells                           60          :
          :  # electrons                       106          :
          :  max. iterations                   250          :
          :  Hamiltonian                  GFN2-xTB          :
          :  restarted?                      false          :
          :  GBSA solvation                  false          :
          :  PC potential                    false          :
          :  electronic temp.          300.0000000     K    :
          :  accuracy                    1.0000000          :
          :  -> integral cutoff          0.2500000E+02      :
          :  -> integral neglect         0.1000000E-07      :
          :  -> SCF convergence          0.1000000E-05 Eh   :
          :  -> wf. convergence          0.1000000E-03 e    :
          :  Broyden damping             0.4000000          :
          :  net charge                          0          :
          :  unpaired electrons                  0          :
          ...................................................

 iter      E             dE          RMSdq      gap      omega  full diag
   1    -54.9549511 -0.549550E+02  0.843E-01    0.11       0.0  T
   2    -53.9164247  0.103853E+01  0.323E+00    0.15       1.0  T
   3    -54.9016249 -0.985200E+00  0.101E+00    0.08       1.0  T
   4    -54.8681214  0.335035E-01  0.114E+00    0.07       1.0  T
   5    -54.9549839 -0.868624E-01  0.591E-01    0.08       1.0  T
   6    -54.9433464  0.116375E-01  0.624E-01    0.12       1.0  T
   7    -54.9690461 -0.256997E-01  0.281E-01    0.04       1.0  T
   8    -54.9726304 -0.358435E-02  0.199E-01    0.08       1.0  T
   9    -54.9734141 -0.783687E-03  0.190E-01    0.06       1.0  T
  10    -54.9756890 -0.227488E-02  0.886E-02    0.07       1.0  T
  11    -54.9759620 -0.272978E-03  0.647E-02    0.07       1.0  T
  12    -54.9761173 -0.155332E-03  0.419E-02    0.06       1.0  T
  13    -54.9761505 -0.332221E-04  0.280E-02    0.06       1.0  T
  14    -54.9761138  0.367118E-04  0.282E-02    0.06       1.0  T
  15    -54.9761604 -0.465956E-04  0.172E-02    0.06       1.0  T
  16    -54.9761657 -0.531778E-05  0.127E-02    0.06       1.3  T
  17    -54.9761758 -0.100271E-04  0.764E-03    0.06       2.2  T
  18    -54.9761766 -0.781632E-06  0.630E-03    0.06       2.6  T
  19    -54.9761738  0.279943E-05  0.819E-03    0.06       2.0  T
  20    -54.9761778 -0.401186E-05  0.325E-03    0.06       5.1  T
  21    -54.9761779 -0.102623E-06  0.261E-03    0.06       6.4  T
  22    -54.9761779 -0.514624E-07  0.205E-03    0.06       8.1  T
  23    -54.9761779  0.360290E-07  0.183E-03    0.06       9.1  T
  24    -54.9761782 -0.295331E-06  0.568E-04    0.06      29.4  T
  25    -54.9761782 -0.329878E-08  0.442E-04    0.06      37.7  T

   *** convergence criteria satisfied after 25 iterations ***

         #    Occupation            Energy/Eh            Energy/eV
      -------------------------------------------------------------
         1        2.0000           -1.1183686             -30.4324
       ...           ...                  ...                  ...
        47        2.0000           -0.4045400             -11.0081
        48        2.0000           -0.3980286             -10.8309
        49        2.0000           -0.3951235             -10.7519
        50        2.0000           -0.3909475             -10.6382
        51        2.0000           -0.3850992             -10.4791
        52        1.9998           -0.3808867             -10.3645
        53        1.5540           -0.3733208             -10.1586 (HOMO)
        54        0.4459           -0.3709487             -10.0940 (LUMO)
        55        0.0003           -0.3638088              -9.8997
        56                         -0.3561569              -9.6915
        57                         -0.3531245              -9.6090
        58                         -0.3473873              -9.4529
       ...                                ...                  ...
       114                          3.2965329              89.7032
      -------------------------------------------------------------
                  HL-Gap            0.0023721 Eh            0.0645 eV
             Fermi-level           -0.3721349 Eh          -10.1263 eV

 SCC (total)                   0 d,  0 h,  0 min,  0.097 sec
 SCC setup                      ...        0 min,  0.000 sec (  0.331%)
 Dispersion                     ...        0 min,  0.001 sec (  0.745%)
 classical contributions        ...        0 min,  0.000 sec (  0.119%)
 integral evaluation            ...        0 min,  0.003 sec (  3.103%)
 iterations                     ...        0 min,  0.079 sec ( 81.585%)
 molecular gradient             ...        0 min,  0.013 sec ( 13.726%)
 printout                       ...        0 min,  0.000 sec (  0.352%)

         :::::::::::::::::::::::::::::::::::::::::::::::::::::
         ::                     SUMMARY                     ::
         :::::::::::::::::::::::::::::::::::::::::::::::::::::
         :: total energy             -54.814230392037 Eh    ::
         :: gradient norm              0.029816016030 Eh/a0 ::
         :: HOMO-LUMO gap              0.064547211989 eV    ::
         ::.................................................::
         :: SCC energy               -54.974029771742 Eh    ::
         :: -> isotropic ES           -0.075507642478 Eh    ::
         :: -> anisotropic ES         -0.010158309216 Eh    ::
         :: -> anisotropic XC          0.022084831395 Eh    ::
         :: -> dispersion             -0.063866834368 Eh    ::
         :: repulsion energy           0.147467299813 Eh    ::
         :: add. restraining           0.012332079892 Eh    ::
         :: total charge              -0.000000000002 e     ::
         :::::::::::::::::::::::::::::::::::::::::::::::::::::

           -------------------------------------------------
          |                Property Printout                |
           -------------------------------------------------

    * Orbital Energies and Occupations

         #    Occupation            Energy/Eh            Energy/eV
      -------------------------------------------------------------
         1        2.0000           -1.1183686             -30.4324
       ...           ...                  ...                  ...
        41        2.0000           -0.4314792             -11.7411
        42        2.0000           -0.4277686             -11.6402
        43        2.0000           -0.4226167             -11.5000
        44        2.0000           -0.4175714             -11.3627
        45        2.0000           -0.4135778             -11.2540
        46        2.0000           -0.4107032             -11.1758
        47        2.0000           -0.4045400             -11.0081
        48        2.0000           -0.3980286             -10.8309
        49        2.0000           -0.3951235             -10.7519
        50        2.0000           -0.3909475             -10.6382
        51        2.0000           -0.3850992             -10.4791
        52        1.9998           -0.3808867             -10.3645
        53        1.5540           -0.3733208             -10.1586 (HOMO)
        54        0.4459           -0.3709487             -10.0940 (LUMO)
        55        0.0003           -0.3638088              -9.8997
        56                         -0.3561569              -9.6915
        57                         -0.3531245              -9.6090
        58                         -0.3473873              -9.4529
        59                         -0.3406473              -9.2695
        60                         -0.3372922              -9.1782
        61                         -0.3293465              -8.9620
        62                         -0.3258971              -8.8681
        63                         -0.3241788              -8.8214
        64                         -0.3199351              -8.7059
       ...                                ...                  ...
       114                          3.2965329              89.7032
      -------------------------------------------------------------
                  HL-Gap            0.0023721 Eh            0.0645 eV
             Fermi-level           -0.3721349 Eh          -10.1263 eV

     #   Z          covCN         q      C6AA      α(0)
     1  40 Zr       8.994     1.001   137.483    17.619
     2  17 Cl       0.991    -0.353   110.559    16.086
     3  17 Cl       0.909    -0.291   108.445    15.932
     4   7 N        1.305    -0.398    28.800     7.635
     5   6 C        3.190    -0.044    28.579     8.720
     6   6 C        1.218    -0.175    42.906    11.085
     7   6 C        4.081    -0.002    20.538     6.437
     8   6 C        2.611    -0.127    31.240     9.141
     9   6 C        2.414    -0.064    30.191     8.958
    10   6 C        2.507    -0.050    29.406     8.858
    11   6 C        2.453    -0.156    32.441     9.295
    12   6 C        1.050    -0.135    40.763    10.758
    13   6 C        0.970    -0.121    39.743    10.583
    14   6 C        1.302    -0.125    40.827    10.798
    15   6 C        3.172    -0.005    27.762     8.607
    16   6 C        1.204    -0.185    43.244    11.127
    17   6 C        4.272    -0.048    21.336     6.560
    18   6 C        3.393    -0.103    26.521     7.980
    19   6 C        2.997    -0.086    30.150     9.007
    20   6 C        2.633    -0.060    29.477     8.881
    21   6 C        2.369    -0.055    30.354     8.968
    22   1 H        0.047     0.215     2.556     2.923
    23   1 H        0.121     0.244     2.229     2.728
    24   1 H        0.026     0.036     6.230     4.563
    25   1 H        0.012     0.095     4.562     3.905
    26   1 H        0.002     0.048     5.838     4.418
    27   1 H        0.399     0.103     3.511     3.334
    28   1 H        0.000     0.035     6.263     4.576
    29   1 H        0.000    -0.039     9.570     5.657
    30   1 H        0.000    -0.012     8.181     5.230
    31   1 H        0.135     0.290     1.823     2.467
    32   1 H        0.071     0.171     3.131     3.234
    33   1 H        0.007     0.150     3.470     3.406
    34   1 H        0.098     0.148     3.489     3.414
    35   1 H        0.012     0.078     4.994     4.086
    36   1 H        0.000     0.022     6.743     4.748

 Mol. C6AA /au·bohr⁶  :      27359.854264
 Mol. C8AA /au·bohr⁸  :     875595.595937
 Mol. α(0) /au        :        271.725200


Wiberg/Mayer (AO) data.
largest (>0.10) Wiberg bond orders for each atom

 ---------------------------------------------------------------------------
     #   Z sym  total        # sym  WBO       # sym  WBO       # sym  WBO
 ---------------------------------------------------------------------------
     1  40 Zr   4.374 --     3 Cl   0.553     2 Cl   0.525     4 N    0.465
                            17 C    0.423    18 C    0.320     7 C    0.249
                            10 C    0.217     8 C    0.191     9 C    0.174
                            11 C    0.170     5 C    0.140    15 C    0.134
                            27 H    0.131    24 H    0.106
     2  17 Cl   1.110 --     1 Zr   0.525    25 H    0.125
     3  17 Cl   1.235 --     1 Zr   0.553    32 H    0.185
     4   7 N    2.970 --    15 C    0.690     1 Zr   0.465     5 C    0.388
                            27 H    0.354    22 H    0.221     7 C    0.139
     5   6 C    3.523 --    19 C    0.722    12 C    0.639     7 C    0.514
                             6 C    0.443     4 N    0.388    23 H    0.200
                             1 Zr   0.140
     6   6 C    2.806 --     7 C    0.689    22 H    0.548     5 C    0.443
                            23 H    0.433    12 C    0.164    19 C    0.111
     7   6 C    3.855 --     8 C    0.987    11 C    0.921     6 C    0.689
                             5 C    0.514     1 Zr   0.249     4 N    0.139
     8   6 C    3.374 --     9 C    1.133     7 C    0.987    24 H    0.498
                             1 Zr   0.191
     9   6 C    3.634 --    10 C    1.316     8 C    1.133    25 H    0.693
                             1 Zr   0.174
    10   6 C    3.739 --     9 C    1.316    11 C    1.132    26 H    0.757
                             1 Zr   0.217
    11   6 C    2.982 --    10 C    1.132     7 C    0.921    27 H    0.250
                             1 Zr   0.170
    12   6 C    3.125 --    13 C    0.783     5 C    0.639    28 H    0.563
                            34 H    0.538     6 C    0.164
    13   6 C    2.631 --    12 C    0.783    29 H    0.743    14 C    0.680
    14   6 C    3.068 --    15 C    0.716    13 C    0.680    35 H    0.545
                            30 H    0.376    31 H    0.234    20 C    0.145
    15   6 C    3.666 --    14 C    0.716     4 N    0.690    16 C    0.664
                            17 C    0.578    20 C    0.483     1 Zr   0.134
    16   6 C    2.860 --    15 C    0.664    32 H    0.625    17 C    0.387
                            21 C    0.326    31 H    0.320
    17   6 C    3.552 --    21 C    0.922    15 C    0.578    18 C    0.572
                             1 Zr   0.423    16 C    0.387    20 C    0.280
    18   6 C    3.549 --    19 C    0.826    33 H    0.606    17 C    0.572
                            21 C    0.393     1 Zr   0.320    20 C    0.189
                            24 H    0.106
    19   6 C    3.346 --    18 C    0.826    20 C    0.824     5 C    0.722
                            34 H    0.245     6 C    0.111
    20   6 C    3.354 --    19 C    0.824    21 C    0.790    15 C    0.483
                            35 H    0.299    17 C    0.280    18 C    0.189
                            14 C    0.145
    21   6 C    3.352 --    17 C    0.922    20 C    0.790    36 H    0.567
                            18 C    0.393    16 C    0.326
    22   1 H    0.913 --     6 C    0.548     4 N    0.221
    23   1 H    0.929 --     6 C    0.433     5 C    0.200    28 H    0.141
    24   1 H    0.957 --     8 C    0.498     1 Zr   0.106    18 C    0.106
    25   1 H    0.944 --     9 C    0.693     2 Cl   0.125
    26   1 H    0.964 --    10 C    0.757
    27   1 H    0.953 --     4 N    0.354    11 C    0.250     1 Zr   0.131
    28   1 H    0.946 --    12 C    0.563    23 H    0.141
    29   1 H    0.835 --    13 C    0.743
    30   1 H    0.739 --    14 C    0.376    31 H    0.166
    31   1 H    0.908 --    16 C    0.320    14 C    0.234    30 H    0.166
    32   1 H    0.938 --    16 C    0.625     3 Cl   0.185
    33   1 H    0.928 --    18 C    0.606
    34   1 H    0.941 --    12 C    0.538    19 C    0.245
    35   1 H    0.973 --    14 C    0.545    20 C    0.299
    36   1 H    0.830 --    21 C    0.567
 ---------------------------------------------------------------------------

Topologies differ in total number of bonds
Writing topology from bond orders to xtbtopo.mol

molecular dipole:
                 x           y           z       tot (Debye)
 q only:       -0.759      -0.667      -0.821
   full:       -0.550      -0.727      -1.383       4.210
molecular quadrupole (traceless):
                xx          xy          yy          xz          yz          zz
 q only:       12.604       1.060       2.406      -2.395       4.539     -15.009
  q+dip:       10.753       5.544       1.845      -4.454       2.049     -12.598
   full:       12.218       4.942       1.948      -2.524       1.488     -14.167

           -------------------------------------------------
          |                Geometry Summary                 |
           -------------------------------------------------

      molecular mass/u    :      395.4378415
   center of mass at/Å    :       -0.3731310       0.1611367       0.4586931
  moments of inertia/u·Å² :        0.1380928E+04   0.1773669E+04   0.2237997E+04
rotational constants/cm⁻¹ :        0.1220746E-01   0.9504386E-02   0.7532465E-02

 * 6 selected distances

     #   Z          #   Z                                           value/Å
     1  40 Zr       2  17 Cl                                      2.2606377
     1  40 Zr       3  17 Cl                                      2.3731953 (max)
     1  40 Zr       4   7 N                                       2.0526590
     1  40 Zr       7   6 C                                       2.0660548
     1  40 Zr      17   6 C                                       2.0071134 (min)
     1  40 Zr      18   6 C                                       2.2462736

 * 3 distinct bonds (by element types)

   Z      Z             #   av. dist./Å        max./Å        min./Å
   6 C   40 Zr          3     2.1064806     2.2462736     2.0071134
   7 N   40 Zr          1     2.0526590     2.0526590     2.0526590
  17 Cl  40 Zr          2     2.3169165     2.3731953     2.2606377


optimized geometry written to: xtbopt.xyz


           -------------------------------------------------
          | TOTAL ENERGY              -54.814230392037 Eh   |
          | GRADIENT NORM               0.029816016030 Eh/α |
          | HOMO-LUMO GAP               0.064547211989 eV   |
           -------------------------------------------------

------------------------------------------------------------------------
 * finished run on 2026/03/05 at 12:14:09.910     
------------------------------------------------------------------------
 total:
 * wall-time:     0 d,  0 h,  0 min,  0.845 sec
 *  cpu-time:     0 d,  0 h,  0 min,  6.250 sec
 * ratio c/w:     7.396 speedup
 SCF:
 * wall-time:     0 d,  0 h,  0 min,  0.140 sec
 *  cpu-time:     0 d,  0 h,  0 min,  1.031 sec
 * ratio c/w:     7.350 speedup
 ANC optimizer:
 * wall-time:     0 d,  0 h,  0 min,  0.653 sec
 *  cpu-time:     0 d,  0 h,  0 min,  5.188 sec
 * ratio c/w:     7.944 speedup

