      -----------------------------------------------------------      
     |                   =====================                   |     
     |                           x T B                           |     
     |                   =====================                   |     
     |                         S. Grimme                         |     
     |          Mulliken Center for Theoretical Chemistry        |     
     |                    University of Bonn                     |     
      -----------------------------------------------------------      

   * xtb version 6.7.1 (edcfbbe) compiled by 'VssAdministrator@runnervmowedg' on 2025-09-04

   xtb is free software: you can redistribute it and/or modify it under
   the terms of the GNU Lesser General Public License as published by
   the Free Software Foundation, either version 3 of the License, or
   (at your option) any later version.
   
   xtb is distributed in the hope that it will be useful,
   but WITHOUT ANY WARRANTY; without even the implied warranty of
   MERCHANTABILITY or FITNESS FOR A PARTICULAR PURPOSE.  See the
   GNU Lesser General Public License for more details.
   
   Cite this work as:
   * C. Bannwarth, E. Caldeweyher, S. Ehlert, A. Hansen, P. Pracht,
     J. Seibert, S. Spicher, S. Grimme, WIREs Comput. Mol. Sci., 2020, 11,
     e01493. DOI: 10.1002/wcms.1493
   
   for GFN2-xTB:
   * C. Bannwarth, S. Ehlert and S. Grimme., J. Chem. Theory Comput., 2019,
     15, 1652-1671. DOI: 10.1021/acs.jctc.8b01176
   for GFN1-xTB:
   * S. Grimme, C. Bannwarth, P. Shushkov, J. Chem. Theory Comput., 2017,
     13, 1989-2009. DOI: 10.1021/acs.jctc.7b00118
   for GFN0-xTB:
   * P. Pracht, E. Caldeweyher, S. Ehlert, S. Grimme, ChemRxiv, 2019, preprint.
     DOI: 10.26434/chemrxiv.8326202.v1
   for GFN-FF:
   * S. Spicher and S. Grimme, Angew. Chem. Int. Ed., 2020, 59, 15665-15673.
     DOI: 10.1002/anie.202004239
   
   for ALPB and GBSA implicit solvation:
   * S. Ehlert, M. Stahn, S. Spicher, S. Grimme, J. Chem. Theory Comput.,
     2021, 17, 4250-4261. DOI: 10.1021/acs.jctc.1c00471
   
   for ddCOSMO and CPCM-X implicit solvation:
   * M. Stahn, S. Ehlert, S. Grimme, J. Phys. Chem. A,
     2023, XX, XXXX-XXXX. DOI: 10.1021/acs.jpca.3c04382
   
   for DFT-D4:
   * E. Caldeweyher, C. Bannwarth and S. Grimme, J. Chem. Phys., 2017,
     147, 034112. DOI: 10.1063/1.4993215
   * E. Caldeweyher, S. Ehlert, A. Hansen, H. Neugebauer, S. Spicher,
     C. Bannwarth and S. Grimme, J. Chem. Phys., 2019, 150, 154122.
     DOI: 10.1063/1.5090222
   * E. Caldeweyher, J.-M. Mewes, S. Ehlert and S. Grimme, Phys. Chem. Chem. Phys.
     2020, 22, 8499-8512. DOI: 10.1039/D0CP00502A
   
   for sTDA-xTB:
   * S. Grimme and C. Bannwarth, J. Chem. Phys., 2016, 145, 054103.
     DOI: 10.1063/1.4959605
   
   in the mass-spec context:
   * V. Asgeirsson, C. Bauer and S. Grimme, Chem. Sci., 2017, 8, 4879.
     DOI: 10.1039/c7sc00601b
   * J. Koopman and S. Grimme, ACS Omega 2019, 4, 12, 15120-15133.
     DOI: 10.1021/acsomega.9b02011
   
   for metadynamics refer to:
   * S. Grimme, J. Chem. Theory Comput., 2019, 155, 2847-2862
     DOI: 10.1021/acs.jctc.9b00143
   
   for SPH calculations refer to:
   * S. Spicher and S. Grimme, J. Chem. Theory Comput., 2021, 17, 1701-1714
     DOI: 10.1021/acs.jctc.0c01306
   
   for ONIOM refer to:
   * C. Plett, A. Katbashev, S. Ehlert, S. Grimme, M. Bursch,
     Phys. Chem. Chem. Phys., 2023, 25, 17860-17868. DOI: 10.1039/D3CP02178E
   
   for DIPRO refer to:
   * J. Kohn, N. Gildemeister, S. Grimme, D. Fazzi, A. Hansen,
     J. Chem. Phys., 2023, just accepted.
   
   for PTB refer to:
   * S. Grimme, M. Mueller, A. Hansen, J. Chem. Phys., 2023, 158, 124111.
     DOI: 10.1063/5.0137838
   
   with help from (in alphabetical order)
   P. Atkinson, C. Bannwarth, F. Bohle, G. Brandenburg, E. Caldeweyher
   M. Checinski, S. Dohm, S. Ehlert, S. Ehrlich, I. Gerasimov, C. Hölzer
   A. Katbashev, J. Kohn, J. Koopman, C. Lavigne, S. Lehtola, F. März, M. Müller,
   F. Musil, H. Neugebauer, J. Pisarek, C. Plett, P. Pracht, F. Pultar,
   J. Seibert, P. Shushkov, S. Spicher, M. Stahn, M. Steiner, T. Strunk,
   J. Stückrath, T. Rose, and J. Unsleber
   
 * started run on 2026/03/05 at 12:39:40.246     
   ID    Z sym.   atoms
    1   40 Zr     1
    2   17 Cl     2, 3
    3    7 N      4
    4    6 C      5-21
    5    1 H      22-36

           -------------------------------------------------
          |                Calculation Setup                |
           -------------------------------------------------

          program call               : xtb qc_relax_1.xyz --opt --chrg 0 --uhf 0 --cycles 5 --input xcontrol
          coordinate file            : qc_relax_1.xyz
          omp threads                :                    12


molecular fragmentation (1/2 indicates fragments):
111111111111111111111121111111121111
# atoms in fragment 1/2:    34     2
 fragment masses (1/2) :      393.42        2.02
CMA distance (Bohr)    :   2.918
constraining FC (au)   :  1.0000

           -------------------------------------------------
          |                 G F N 2 - x T B                 |
           -------------------------------------------------

        Reference                      10.1021/acs.jctc.8b01176
      * Hamiltonian:
        H0-scaling (s, p, d)           1.850000    2.230000    2.230000
        zeta-weighting                 0.500000
      * Dispersion:
        s8                             2.700000
        a1                             0.520000
        a2                             5.000000
        s9                             5.000000
      * Repulsion:
        kExp                           1.500000    1.000000
        rExp                           1.000000
      * Coulomb:
        alpha                          2.000000
        third order                    shell-resolved
        anisotropic                    true
        a3                             3.000000
        a5                             4.000000
        cn-shift                       1.200000
        cn-exp                         4.000000
        max-rad                        5.000000

q/qsh data taken from xtbrestart
CAMM data taken from xtbrestart

          ...................................................
          :                      SETUP                      :
          :.................................................:
          :  # basis functions                 117          :
          :  # atomic orbitals                 114          :
          :  # shells                           60          :
          :  # electrons                       106          :
          :  max. iterations                   250          :
          :  Hamiltonian                  GFN2-xTB          :
          :  restarted?                       true          :
          :  GBSA solvation                  false          :
          :  PC potential                    false          :
          :  electronic temp.          300.0000000     K    :
          :  accuracy                    1.0000000          :
          :  -> integral cutoff          0.2500000E+02      :
          :  -> integral neglect         0.1000000E-07      :
          :  -> SCF convergence          0.1000000E-05 Eh   :
          :  -> wf. convergence          0.1000000E-03 e    :
          :  Broyden damping             0.4000000          :
          :  net charge                          0          :
          :  unpaired electrons                  0          :
          ...................................................

 iter      E             dE          RMSdq      gap      omega  full diag
   1    -58.6044895 -0.586045E+02  0.277E-01    0.16       0.0  T
   2    -58.6045918 -0.102329E-03  0.277E-01    0.53       1.0  T
   3    -58.6069903 -0.239843E-02  0.106E-01    0.34       1.0  T
   4    -58.6071154 -0.125097E-03  0.602E-02    0.24       1.0  T
   5    -58.6071516 -0.362574E-04  0.347E-02    0.25       1.0  T
   6    -58.6071598 -0.817495E-05  0.206E-02    0.26       1.0  T
   7    -58.6071628 -0.303267E-05  0.958E-03    0.26       1.7  T
   8    -58.6071636 -0.788324E-06  0.448E-03    0.26       3.7  T
   9    -58.6071638 -0.191860E-06  0.309E-03    0.26       5.4  T
  10    -58.6071639 -0.126503E-06  0.166E-03    0.26      10.1  T
  11    -58.6071640 -0.235300E-07  0.116E-03    0.26      14.4  T
  12    -58.6071640 -0.151236E-07  0.767E-04    0.26      21.7  T
  13    -58.6071640 -0.653445E-08  0.347E-04    0.26      48.0  T

   *** convergence criteria satisfied after 13 iterations ***

         #    Occupation            Energy/Eh            Energy/eV
      -------------------------------------------------------------
         1        2.0000           -1.1044948             -30.0548
       ...           ...                  ...                  ...
        47        2.0000           -0.3996975             -10.8763
        48        2.0000           -0.3948453             -10.7443
        49        2.0000           -0.3789151             -10.3108
        50        2.0000           -0.3691664             -10.0455
        51        2.0000           -0.3522585              -9.5854
        52        2.0000           -0.3278932              -8.9224
        53        1.9874           -0.3037222              -8.2647 (HOMO)
        54        0.0126           -0.2941089              -8.0031 (LUMO)
        55                         -0.2621879              -7.1345
        56                         -0.2462578              -6.7010
        57                         -0.2365374              -6.4365
        58                         -0.2172836              -5.9126
       ...                                ...                  ...
       114                          3.7837977             102.9624
      -------------------------------------------------------------
                  HL-Gap            0.0096133 Eh            0.2616 eV
             Fermi-level           -0.2989156 Eh           -8.1339 eV

 SCC (total)                   0 d,  0 h,  0 min,  0.100 sec
 SCC setup                      ...        0 min,  0.001 sec (  0.534%)
 Dispersion                     ...        0 min,  0.001 sec (  0.678%)
 classical contributions        ...        0 min,  0.000 sec (  0.157%)
 integral evaluation            ...        0 min,  0.006 sec (  5.981%)
 iterations                     ...        0 min,  0.068 sec ( 67.984%)
 molecular gradient             ...        0 min,  0.024 sec ( 23.939%)
 printout                       ...        0 min,  0.001 sec (  0.684%)

         :::::::::::::::::::::::::::::::::::::::::::::::::::::
         ::                     SUMMARY                     ::
         :::::::::::::::::::::::::::::::::::::::::::::::::::::
         :: total energy             -57.489786435841 Eh    ::
         :: gradient norm              0.644630923008 Eh/a0 ::
         :: HOMO-LUMO gap              0.261591848371 eV    ::
         ::.................................................::
         :: SCC energy               -58.606059524475 Eh    ::
         :: -> isotropic ES            0.043158957601 Eh    ::
         :: -> anisotropic ES         -0.000094756140 Eh    ::
         :: -> anisotropic XC          0.012678806656 Eh    ::
         :: -> dispersion             -0.055178616733 Eh    ::
         :: repulsion energy           1.116273088633 Eh    ::
         :: add. restraining           0.000000000000 Eh    ::
         :: total charge               0.000000000000 e     ::
         :::::::::::::::::::::::::::::::::::::::::::::::::::::

      ----------------------------------------------------------- 
     |                   =====================                   |
     |                        A N C O P T                        |
     |                   =====================                   |
     |               Approximate Normal Coordinate               |
     |                Rational Function Optimizer                |
      ----------------------------------------------------------- 
      ----------------------------------------------------------- 
     |                   =====================                   |
     |                        A N C O P T                        |
     |                   =====================                   |
     |               Approximate Normal Coordinate               |
     |                Rational Function Optimizer                |
      ----------------------------------------------------------- 

          ...................................................
          :                      SETUP                      :
          :.................................................:
          :   optimization level            normal          :
          :   max. optcycles                     5          :
          :   ANC micro-cycles                   5          :
          :   degrees of freedom               102          :
          :.................................................:
          :   RF solver                   davidson          :
          :   write xtbopt.log                true          :
          :   linear?                        false          :
          :   energy convergence         0.5000000E-05 Eh   :
          :   grad. convergence          0.1000000E-02 Eh/α :
          :   maxmium RF displ.          1.0000000          :
          :   Hlow (freq-cutoff)         0.1000000E-01      :
          :   Hmax (freq-cutoff)         5.0000000          :
          :   S6 in model hess.         20.0000000          :
          ...................................................

generating ANC from exact Hessian ...
Using Lindh-Hessian (1995)
 Shifting diagonal of input Hessian by    6.2779142899611184E-003
 Lowest  eigenvalues of input Hessian
    0.000000    0.000000    0.000000    0.000000    0.000000    0.000000
    0.010000    0.013106    0.019802    0.021931    0.025700    0.026885
    0.029195    0.031339    0.032892    0.038092    0.039786    0.040205
 Highest eigenvalues
    2.489961    2.555014    2.580826    2.654018    2.735917    3.023662


........................................................................
.............................. CYCLE    1 ..............................
........................................................................

 iter      E             dE          RMSdq      gap      omega  full diag
   1    -58.6071640 -0.586072E+02  0.168E-04    0.26       0.0  T
   2    -58.6071640 -0.482032E-10  0.139E-04    0.26     120.1  T
   3    -58.6071640 -0.259668E-09  0.982E-05    0.26     169.7  T
     SCC iter.                  ...        0 min,  0.017 sec
     gradient                   ...        0 min,  0.015 sec
 * total energy  :   -57.4897864 Eh     change       -0.1077602E-08 Eh
   gradient norm :     0.6446309 Eh/α   predicted     0.0000000E+00 (-100.00%)
   displ. norm   :     0.6010313 α      lambda       -0.3129734E+00
   maximum displ.:     0.3236907 α      in ANC's #46, #38, #41, ...

........................................................................
.............................. CYCLE    2 ..............................
........................................................................

 iter      E             dE          RMSdq      gap      omega  full diag
   1    -58.4574635 -0.584575E+02  0.621E-01    0.44       0.0  T
   2    -58.4589493 -0.148583E-02  0.521E-01    0.52       1.0  T
   3    -58.4598888 -0.939498E-03  0.335E-01    0.47       1.0  T
   4    -58.4595635  0.325322E-03  0.132E-01    0.51       1.0  T
   5    -58.4600795 -0.516012E-03  0.486E-02    0.48       1.0  T
   6    -58.4601087 -0.291464E-04  0.312E-02    0.49       1.0  T
   7    -58.4601121 -0.343704E-05  0.188E-02    0.48       1.0  T
   8    -58.4601138 -0.165502E-05  0.122E-02    0.48       1.4  T
   9    -58.4601152 -0.147746E-05  0.572E-03    0.48       2.9  T
  10    -58.4601156 -0.370170E-06  0.387E-03    0.48       4.3  T
  11    -58.4601157 -0.121530E-06  0.288E-03    0.48       5.8  T
  12    -58.4601158 -0.985248E-07  0.174E-03    0.48       9.6  T
  13    -58.4601158 -0.274344E-07  0.955E-04    0.48      17.5  T
  14    -58.4601159 -0.154876E-07  0.389E-04    0.48      42.8  T
     SCC iter.                  ...        0 min,  0.074 sec
     gradient                   ...        0 min,  0.031 sec
 * total energy  :   -57.5580858 Eh     change       -0.6829933E-01 Eh
   gradient norm :     0.2521496 Eh/α   predicted    -0.2131113E+00 ( 212.03%)
   displ. norm   :     0.6638941 α      lambda       -0.1534838E+00
   maximum displ.:     0.3549812 α      in ANC's #46, #38, #41, ...

........................................................................
.............................. CYCLE    3 ..............................
........................................................................

 iter      E             dE          RMSdq      gap      omega  full diag
   1    -58.2316031 -0.582316E+02  0.478E-01    0.42       0.0  T
   2    -58.2319566 -0.353516E-03  0.324E-01    0.58       1.0  T
   3    -58.2317835  0.173131E-03  0.197E-01    0.47       1.0  T
   4    -58.2326654 -0.881882E-03  0.562E-02    0.52       1.0  T
   5    -58.2327337 -0.683667E-04  0.281E-02    0.52       1.0  T
   6    -58.2327375 -0.375188E-05  0.190E-02    0.52       1.0  T
   7    -58.2327393 -0.176319E-05  0.113E-02    0.52       1.5  T
   8    -58.2327398 -0.500831E-06  0.926E-03    0.52       1.8  T
   9    -58.2327410 -0.119800E-05  0.496E-03    0.52       3.4  T
  10    -58.2327412 -0.239312E-06  0.296E-03    0.52       5.6  T
  11    -58.2327413 -0.100221E-06  0.158E-03    0.52      10.6  T
  12    -58.2327413 -0.211138E-07  0.845E-04    0.52      19.7  T
  13    -58.2327413 -0.140904E-08  0.590E-04    0.52      28.2  T
     SCC iter.                  ...        0 min,  0.066 sec
     gradient                   ...        0 min,  0.015 sec
 * total energy  :   -57.4582056 Eh     change        0.9988020E-01 Eh
   gradient norm :     0.1743273 Eh/α   predicted    -0.1105670E+00 (-210.70%)
   displ. norm   :     0.7043078 α      lambda       -0.1078340E+00
   maximum displ.:     0.3452606 α      in ANC's #38, #46, #41, ...

........................................................................
.............................. CYCLE    4 ..............................
........................................................................

 iter      E             dE          RMSdq      gap      omega  full diag
   1    -57.9755463 -0.579755E+02  0.488E-01    0.34       0.0  T
   2    -57.9758826 -0.336285E-03  0.334E-01    0.55       1.0  T
   3    -57.9758013  0.812774E-04  0.227E-01    0.39       1.0  T
   4    -57.9767491 -0.947758E-03  0.872E-02    0.45       1.0  T
   5    -57.9769372 -0.188076E-03  0.328E-02    0.46       1.0  T
   6    -57.9769505 -0.133889E-04  0.206E-02    0.46       1.0  T
   7    -57.9769487  0.180662E-05  0.145E-02    0.46       1.2  T
   8    -57.9769538 -0.502023E-05  0.818E-03    0.46       2.0  T
   9    -57.9769540 -0.271244E-06  0.579E-03    0.46       2.9  T
  10    -57.9769546 -0.531067E-06  0.375E-03    0.46       4.4  T
  11    -57.9769547 -0.146707E-06  0.208E-03    0.46       8.0  T
  12    -57.9769548 -0.650489E-07  0.114E-03    0.46      14.6  T
  13    -57.9769548 -0.163607E-07  0.616E-04    0.46      27.0  T
  14    -57.9769548 -0.210300E-08  0.394E-04    0.46      42.3  T
     SCC iter.                  ...        0 min,  0.068 sec
     gradient                   ...        0 min,  0.022 sec
 * total energy  :   -57.2945006 Eh     change        0.1637050E+00 Eh
   gradient norm :     0.1323842 Eh/α   predicted    -0.8066255E-01 (-149.27%)
   displ. norm   :     0.7165446 α      lambda       -0.7613874E-01
   maximum displ.:     0.3740529 α      in ANC's #38, #41, #46, ...

........................................................................
.............................. CYCLE    5 ..............................
........................................................................

 iter      E             dE          RMSdq      gap      omega  full diag
   1    -57.7097089 -0.577097E+02  0.482E-01    0.26       0.0  T
   2    -57.7097982 -0.892887E-04  0.359E-01    0.52       1.0  T
   3    -57.7103558 -0.557610E-03  0.251E-01    0.34       1.0  T
   4    -57.7109452 -0.589407E-03  0.142E-01    0.36       1.0  T
   5    -57.7115279 -0.582721E-03  0.428E-02    0.39       1.0  T
   6    -57.7115673 -0.393785E-04  0.217E-02    0.39       1.0  T
   7    -57.7115644  0.293019E-05  0.166E-02    0.39       1.0  T
   8    -57.7115716 -0.722404E-05  0.788E-03    0.39       2.1  T
   9    -57.7115716 -0.416052E-07  0.597E-03    0.39       2.8  T
  10    -57.7115724 -0.771464E-06  0.371E-03    0.39       4.5  T
  11    -57.7115725 -0.105386E-06  0.279E-03    0.39       6.0  T
  12    -57.7115726 -0.134902E-06  0.151E-03    0.39      11.1  T
  13    -57.7115727 -0.301544E-07  0.812E-04    0.39      20.5  T
  14    -57.7115727 -0.940246E-08  0.480E-04    0.39      34.8  T
     SCC iter.                  ...        0 min,  0.068 sec
     gradient                   ...        0 min,  0.012 sec
 * total energy  :   -57.0954087 Eh     change        0.1990919E+00 Eh
   gradient norm :     0.0947296 Eh/α   predicted    -0.5761557E-01 (-128.94%)
   displ. norm   :     0.7315805 α      lambda       -0.5480989E-01
   maximum displ.:     0.3966283 α      in ANC's #38, #41, #46, ...

   *** FAILED TO CONVERGE GEOMETRY OPTIMIZATION IN 5 ITERATIONS ***


 ANCopt (total)                0 d,  0 h,  0 min,  0.461 sec
 optimizer setup                ...        0 min,  0.000 sec (  0.081%)
 model hessian                  ...        0 min,  0.025 sec (  5.425%)
 ANC generation                 ...        0 min,  0.003 sec (  0.567%)
 coordinate transformation      ...        0 min,  0.000 sec (  0.028%)
 single point calculation       ...        0 min,  0.424 sec ( 92.026%)
 optimization log               ...        0 min,  0.002 sec (  0.506%)
 hessian update                 ...        0 min,  0.003 sec (  0.585%)
 rational function              ...        0 min,  0.003 sec (  0.671%)

================
 final structure:
================
36
 xtb: 6.7.1 (edcfbbe)
Zr          -0.20003173694374        0.01211921571418       -0.05338874900559
Cl          -0.08252023842877        0.02278012292830       -2.07612391922936
Cl           1.90257366166717        0.02044284633007       -0.08917384125787
N            0.62735478355535       -0.04299616427702        1.54017448760094
C            1.22707315309911        1.12159361774522        2.24084182272964
C            1.25932663006517        2.57630896695834        1.48379715764162
C           -0.07144637191082        2.12640309933265        0.58082443372656
C           -1.39007044169235        1.69650809096135        0.94597965230132
C           -2.16111100243464        1.58216248399426       -0.30273789945117
C           -1.30633609951327        1.84835804228448       -1.42228580249660
C            0.02623432909726        2.14277669042153       -0.87699772423143
C            1.76617608800593        1.38895001105124        3.75399757699423
C            1.72561142589337        0.04034997047511        4.71040548917296
C            1.27063769220758       -1.38281312869449        4.00006828985948
C            0.78368569431498       -1.20564248767444        2.45256543363876
C            0.50119212785202       -2.74191298494263        1.93439200262905
C           -0.36989779647930       -2.10328231712290        0.65307549869613
C            0.05129363524452       -2.21060798020741       -0.71038240906812
C           -1.18328708567763       -1.83270394781669       -1.41708536929353
C           -2.24534087840079       -1.35945117069734       -0.51681147280153
C           -1.69810271737425       -1.47652987012346        0.80930337733907
H            0.87453134385377        3.54193030121078        2.34042050513886
H            2.36165356945459        2.50648360011262        0.71637290899558
H           -1.81346039631663        1.46401422623352        2.22051404224269
H           -3.47157995101931        1.28562331798960       -0.33666835370902
H           -1.63413189839379        1.81525210392909       -2.71869389119974
H            1.20256362343160        2.20999091145396       -1.54970527283045
H            2.10064718203102        2.56212069801359        4.21318387300028
H            2.13801038518606        0.07693193733005        5.93988353560460
H            1.27507912496507       -2.51967647595837        4.63822983652368
H            1.69108457655307       -3.20769638207894        1.50721282373670
H           -0.35815323686524       -3.31261292901068        2.80209373997299
H            1.21464058710087       -2.76000927960223       -1.11988402457768
H           -1.29284867848081       -1.91313905800887       -2.75186248875467
H           -3.47391490207443       -0.89303938102013       -0.79063978046984
H           -2.27719318157275       -1.12854069723435        1.99378351083154

 Bond Distances (Angstroems)
 ---------------------------
Zr1-Cl2=2.0262       Zr1-Cl3=2.1029       Zr1-N4=1.7964        Zr1-C5=2.9208        Zr1-C7=2.2111        Zr1-C8=2.2917        
Zr1-C9=2.5245        Zr1-C10=2.5435       Zr1-C11=2.2955       Zr1-C15=2.9547       Zr1-C17=2.2367       Zr1-C18=2.3314       
Zr1-C19=2.4960       Zr1-C20=2.5058       Zr1-C21=2.2813       Cl2-Zr1=2.0262       Cl2-C19=2.2558       Cl3-Zr1=2.1029       
Cl3-N4=2.0700        N4-Zr1=1.7964        N4-Cl3=2.0700        N4-C5=1.4856         N4-C15=1.4862        C5-Zr1=2.9208        
C5-N4=1.4856         C5-C6=1.6402         C5-C12=1.6284        C6-C5=1.6402         C6-C7=1.6699         C6-H22=1.3470        
C6-H23=1.3450        C7-Zr1=2.2111        C7-C6=1.6699         C7-C8=1.4342         C7-C11=1.4612        C8-Zr1=2.2917        
C8-C7=1.4342         C8-C9=1.4720         C8-H24=1.3630        C9-Zr1=2.5245        C9-C8=1.4720         C9-C10=1.4335        
C9-H25=1.3440        C10-Zr1=2.5435       C10-C9=1.4335        C10-C11=1.4696       C10-H26=1.3376       C11-Zr1=2.2955       
C11-C7=1.4612        C11-C10=1.4696       C11-H27=1.3568       C12-C5=1.6284        C12-C13=1.6538       C12-H28=1.3035       
C13-C12=1.6538       C13-C14=1.6544       C13-H29=1.2973       C14-C13=1.6544       C14-C15=1.6320       C14-H30=1.3037       
C15-Zr1=2.9547       C15-N4=1.4862        C15-C14=1.6320       C15-C16=1.6457       C16-C15=1.6457       C16-C17=1.6758       
C16-H31=1.3473       C16-H32=1.3480       C17-Zr1=2.2367       C17-C16=1.6758       C17-C18=1.4311       C17-C21=1.4769       
C18-Zr1=2.3314       C18-C17=1.4311       C18-C19=1.4719       C18-H33=1.3502       C19-Zr1=2.4960       C19-Cl2=2.2558       
C19-C18=1.4719       C19-C20=1.4705       C19-H34=1.3417       C20-Zr1=2.5058       C20-C19=1.4705       C20-C21=1.4394       
C20-H35=1.3424       C21-Zr1=2.2813       C21-C17=1.4769       C21-C20=1.4394       C21-H36=1.3636       H22-C6=1.3470        
H23-C6=1.3450        H24-C8=1.3630        H25-C9=1.3440        H26-C10=1.3376       H27-C11=1.3568       H28-C12=1.3035       
H29-C13=1.2973       H30-C14=1.3037       H31-C16=1.3473       H32-C16=1.3480       H33-C18=1.3502       H34-C19=1.3417       
H35-C20=1.3424       H36-C21=1.3636       
 C  H  Rav=1.3394 sigma=0.0203  Rmin=1.2973  Rmax=1.3636    15
 C  C  Rav=1.5423 sigma=0.0979  Rmin=1.4311  Rmax=1.6758    18
 N  C  Rav=1.4859 sigma=0.0003  Rmin=1.4856  Rmax=1.4862     2
 Cl C  Rav=2.2558 sigma=0.0000  Rmin=2.2558  Rmax=2.2558     1
 Cl N  Rav=2.0700 sigma=0.0000  Rmin=2.0700  Rmax=2.0700     1
 Zr C  Rav=2.4661 sigma=0.2392  Rmin=2.2111  Rmax=2.9547    12
 Zr N  Rav=1.7964 sigma=0.0000  Rmin=1.7964  Rmax=1.7964     1
 Zr Cl Rav=2.0646 sigma=0.0384  Rmin=2.0262  Rmax=2.1029     2

 selected bond angles (degree)
 --------------------
Cl3-Zr1-Cl2= 85.70             N4-Zr1-Cl2=149.21              N4-Zr1-Cl3= 63.56              C5-Zr1-Cl2=138.92              
C5-Zr1-Cl3= 61.53              C5-Zr1-N4= 24.47               C7-Zr1-Cl2=106.14              C7-Zr1-Cl3= 86.73              
C7-Zr1-N4= 75.41               C7-Zr1-C5= 51.91               C8-Zr1-Cl2=117.49              C8-Zr1-Cl3=121.58              
C8-Zr1-N4= 82.81               C8-Zr1-C5= 68.41               C8-Zr1-C7= 37.09               C9-Zr1-Cl2= 86.74              
C9-Zr1-Cl3=140.58              C9-Zr1-N4=117.68               C9-Zr1-C5=102.76               C9-Zr1-C7= 58.59               
C9-Zr1-C8= 35.17               C10-Zr1-Cl2= 58.95             C10-Zr1-Cl3=115.02             C10-Zr1-N4=134.42              
C10-Zr1-C5=111.16              C10-Zr1-C7= 59.29              C10-Zr1-C8= 58.55              C10-Zr1-C9= 32.86              
C11-Zr1-Cl2= 68.36             C11-Zr1-Cl3= 83.78             C11-Zr1-N4=107.54              C11-Zr1-C5= 83.17              
C11-Zr1-C7= 37.78              C11-Zr1-C8= 61.67              C11-Zr1-C9= 57.58              C11-Zr1-C10= 34.88             
C15-Zr1-Cl2=146.05             C15-Zr1-Cl3= 71.53             C15-Zr1-N4= 23.32              C15-Zr1-C5= 47.76              
C15-Zr1-C7= 97.55              C15-Zr1-C8= 96.08              C15-Zr1-C9=126.78              C15-Zr1-C10=154.00             
C15-Zr1-C11=130.85             C17-Zr1-Cl2=108.95             C17-Zr1-Cl3= 94.88             C17-Zr1-N4= 74.08              
C17-Zr1-C5= 98.53              C17-Zr1-C7=144.90              C17-Zr1-C8=121.19              C17-Zr1-C9=124.08              
C17-Zr1-C10=145.06             C17-Zr1-C11=177.04             C17-Zr1-C15= 50.77             C18-Zr1-Cl2= 73.59             
C18-Zr1-Cl3= 83.75             C18-Zr1-N4= 99.85              C18-Zr1-C5=122.06              C18-Zr1-C7=170.47              
C18-Zr1-C8=151.59              C18-Zr1-C9=130.45              C18-Zr1-C10=125.70             C18-Zr1-C11=140.64             
C18-Zr1-C15= 79.06             C18-Zr1-C17= 36.44             C19-Zr1-Cl2= 58.76             C19-Zr1-Cl3=112.80             
C19-Zr1-N4=130.05              C19-Zr1-C5=154.47              C19-Zr1-C7=152.42              C19-Zr1-C8=125.24              
C19-Zr1-C9= 95.72              C19-Zr1-C10= 93.91             C19-Zr1-C11=121.93             C19-Zr1-C15=106.85             
C19-Zr1-C17= 56.19             C19-Zr1-C18= 35.30             C20-Zr1-Cl2= 82.28             C20-Zr1-Cl3=144.60             
C20-Zr1-N4=121.55              C20-Zr1-C5=138.76              C20-Zr1-C7=128.60              C20-Zr1-C8= 93.39              
C20-Zr1-C9= 71.83              C20-Zr1-C10= 86.59             C20-Zr1-C11=121.48             C20-Zr1-C15=101.71             
C20-Zr1-C17= 58.58             C20-Zr1-C18= 60.92             C20-Zr1-C19= 34.19             C21-Zr1-Cl2=114.77             
C21-Zr1-Cl3=131.73             C21-Zr1-N4= 86.96              C21-Zr1-C5=105.76              C21-Zr1-C7=123.62              
C21-Zr1-C8= 88.49              C21-Zr1-C9= 86.16              C21-Zr1-C10=112.89             C21-Zr1-C11=143.72             
C21-Zr1-C15= 68.22             C21-Zr1-C17= 38.14             C21-Zr1-C18= 63.59             C21-Zr1-C19= 57.70             
C21-Zr1-C20= 34.59             C19-Cl2-Zr1= 71.08             N4-Cl3-Zr1= 50.99              Cl3-N4-Zr1= 65.45              
C5-N4-Zr1=125.47               C5-N4-Cl3= 95.65               C15-N4-Zr1=128.10              C15-N4-Cl3=116.26              
C15-N4-C5=106.34               N4-C5-Zr1= 30.06               C6-C5-Zr1= 89.08               C6-C5-N4=119.05                
C12-C5-Zr1=162.55              C12-C5-N4=134.48               C12-C5-C6=106.07               C7-C6-C5= 89.71                
H22-C6-C5=109.67               H22-C6-C7=108.02               H23-C6-C5=103.50               H23-C6-C7=109.31               
H23-C6-H22=129.36              C6-C7-Zr1=117.33               C8-C7-Zr1= 74.51               C8-C7-C6=132.51                
C11-C7-Zr1= 74.24              C11-C7-C6=118.89               C11-C7-C8=108.59               C7-C8-Zr1= 68.40               
C9-C8-Zr1= 81.08               C9-C8-C7=106.79                H24-C8-Zr1=116.34              H24-C8-C7=125.09               
H24-C8-C9=128.12               C8-C9-Zr1= 63.74               C10-C9-Zr1= 74.30              C10-C9-C8=109.62               
H25-C9-Zr1=128.51              H25-C9-C8=123.32               H25-C9-C10=127.06              C9-C10-Zr1= 72.84              
C11-C10-Zr1= 63.29             C11-C10-C9=106.74              H26-C10-Zr1=127.61             H26-C10-C9=127.32              
H26-C10-C11=125.93             

 selected dihedral angles (degree)
 ---------------------------------
C19-Cl2-Zr1-Cl3=120.01        C19-Cl2-Zr1-N4=116.88         C19-Cl2-Zr1-C5=155.55         C19-Cl2-Zr1-C7=205.35         
C19-Cl2-Zr1-C8=243.58         C19-Cl2-Zr1-C9=261.30         C19-Cl2-Zr1-C10=242.71        C19-Cl2-Zr1-C11=205.02        
C19-Cl2-Zr1-C15= 72.90        C19-Cl2-Zr1-C17= 26.32        C19-Cl2-Zr1-C18= 35.27        C19-Cl2-Zr1-C20=333.38        
C19-Cl2-Zr1-C21=345.55        N4-Cl3-Zr1-Cl2=181.79         N4-Cl3-Zr1-C5= 27.54          N4-Cl3-Zr1-C7= 75.32          
N4-Cl3-Zr1-C8= 61.98          N4-Cl3-Zr1-C9=102.23          N4-Cl3-Zr1-C10=129.09         N4-Cl3-Zr1-C11=113.13         
N4-Cl3-Zr1-C15=336.24         N4-Cl3-Zr1-C17=290.48         N4-Cl3-Zr1-C18=255.72         N4-Cl3-Zr1-C19=235.22         
N4-Cl3-Zr1-C20=252.01         N4-Cl3-Zr1-C21=301.52         Cl3-N4-Zr1-Cl2=  3.49         Cl3-N4-Zr1-C5=281.09          
Cl3-N4-Zr1-C7=266.35          Cl3-N4-Zr1-C8=229.29          Cl3-N4-Zr1-C9=224.48          Cl3-N4-Zr1-C10=259.99         
Cl3-N4-Zr1-C11=286.50         Cl3-N4-Zr1-C15=105.07         Cl3-N4-Zr1-C17=103.92         Cl3-N4-Zr1-C18= 77.90         
Cl3-N4-Zr1-C19= 98.47         Cl3-N4-Zr1-C20=139.72         Cl3-N4-Zr1-C21=140.43         C5-N4-Zr1-Cl2= 82.40          
C5-N4-Zr1-Cl3= 78.91          C5-N4-Zr1-C7=345.26           C5-N4-Zr1-C8=308.19           C5-N4-Zr1-C9=303.39           
C5-N4-Zr1-C10=338.89          C5-N4-Zr1-C11=  5.41          C5-N4-Zr1-C15=183.97          C5-N4-Zr1-C17=182.83          
C5-N4-Zr1-C18=156.80          C5-N4-Zr1-C19=177.38          C5-N4-Zr1-C20=218.63          C5-N4-Zr1-C21=219.33          
C15-N4-Zr1-Cl2=258.43         C15-N4-Zr1-Cl3=254.93         C15-N4-Zr1-C5=176.03          C15-N4-Zr1-C7=161.29          
C15-N4-Zr1-C8=124.22          C15-N4-Zr1-C9=119.42          C15-N4-Zr1-C10=154.92         C15-N4-Zr1-C11=181.44         
C15-N4-Zr1-C17=358.86         C15-N4-Zr1-C18=332.83         C15-N4-Zr1-C19=353.41         C15-N4-Zr1-C20= 34.65         
C15-N4-Zr1-C21= 35.36         C5-N4-Cl3-Zr1=233.43          C15-N4-Cl3-Zr1=122.08         N4-C5-Zr1-Cl2=230.55          
N4-C5-Zr1-Cl3=271.80          N4-C5-Zr1-C7=161.77           N4-C5-Zr1-C8=123.01           N4-C5-Zr1-C9=130.70           
N4-C5-Zr1-C10=163.99          N4-C5-Zr1-C11=185.19          N4-C5-Zr1-C15=  2.12          N4-C5-Zr1-C17=  2.75          
N4-C5-Zr1-C18=332.74          N4-C5-Zr1-C19=355.34          N4-C5-Zr1-C20= 53.81          N4-C5-Zr1-C21= 41.12          
C6-C5-Zr1-Cl2= 46.23          C6-C5-Zr1-Cl3= 87.48          C6-C5-Zr1-N4=175.68           C6-C5-Zr1-C7=337.44           
C6-C5-Zr1-C8=298.69           C6-C5-Zr1-C9=306.38           C6-C5-Zr1-C10=339.67          C6-C5-Zr1-C11=  0.87          
C6-C5-Zr1-C15=177.80          C6-C5-Zr1-C17=178.43          C6-C5-Zr1-C18=148.42          C6-C5-Zr1-C19=171.02          
C6-C5-Zr1-C20=229.48          C6-C5-Zr1-C21=216.80          C12-C5-Zr1-Cl2=196.95         C12-C5-Zr1-Cl3=238.20         
C12-C5-Zr1-N4=326.39          C12-C5-Zr1-C7=128.16          C12-C5-Zr1-C8= 89.40          C12-C5-Zr1-C9= 97.09          
C12-C5-Zr1-C10=130.38         C12-C5-Zr1-C11=151.59         C12-C5-Zr1-C15=328.52         C12-C5-Zr1-C17=329.14         
C12-C5-Zr1-C18=299.14         C12-C5-Zr1-C19=321.73         C12-C5-Zr1-C20= 20.20         C12-C5-Zr1-C21=  7.52         
Zr1-C5-N4-Cl3= 63.76          Zr1-C5-N4-C15=183.26          C6-C5-N4-Zr1=355.05           C6-C5-N4-Cl3= 58.82           
C6-C5-N4-C15=178.31           C12-C5-N4-Zr1=166.55          C12-C5-N4-Cl3=230.32          C12-C5-N4-C15=349.81          
C7-C6-C5-Zr1= 23.56           C7-C6-C5-N4= 26.04            C7-C6-C5-C12=212.34           H22-C6-C5-Zr1=132.63          
H22-C6-C5-N4=135.11           H22-C6-C5-C12=321.41          H23-C6-C5-Zr1=273.76          H23-C6-C5-N4=276.23           
H23-C6-C5-C12=102.53          C6-C7-Zr1-Cl2=244.71          C6-C7-Zr1-Cl3=329.27          C6-C7-Zr1-N4= 32.79           
C6-C7-Zr1-C5= 25.09           C6-C7-Zr1-C8=130.25           C6-C7-Zr1-C9=168.95           C6-C7-Zr1-C10=207.50          
C6-C7-Zr1-C11=245.21          C6-C7-Zr1-C15= 40.15          C6-C7-Zr1-C17= 63.11          C6-C7-Zr1-C18=331.66          
C6-C7-Zr1-C19=192.47          C6-C7-Zr1-C20=151.73          C6-C7-Zr1-C21=108.97          C8-C7-Zr1-Cl2=114.46          
C8-C7-Zr1-Cl3=199.02          C8-C7-Zr1-N4=262.54           C8-C7-Zr1-C5=254.84           C8-C7-Zr1-C9= 38.70           
C8-C7-Zr1-C10= 77.25          C8-C7-Zr1-C11=114.96          C8-C7-Zr1-C15=269.90          C8-C7-Zr1-C17=292.86          
C8-C7-Zr1-C18=201.41          C8-C7-Zr1-C19= 62.22          C8-C7-Zr1-C20= 21.48          C8-C7-Zr1-C21=338.72          
C11-C7-Zr1-Cl2=359.50         C11-C7-Zr1-Cl3= 84.06         C11-C7-Zr1-N4=147.58          C11-C7-Zr1-C5=139.88          
C11-C7-Zr1-C8=245.04          C11-C7-Zr1-C9=283.74          C11-C7-Zr1-C10=322.29         C11-C7-Zr1-C15=154.94         
C11-C7-Zr1-C17=177.90         C11-C7-Zr1-C18= 86.45         C11-C7-Zr1-C19=307.26         C11-C7-Zr1-C20=266.52         
C11-C7-Zr1-C21=223.76         Zr1-C7-C6-C5=323.54           Zr1-C7-C6-H22=212.91          Zr1-C7-C6-H23= 67.75          
C8-C7-C6-C5= 57.32            C8-C7-C6-H22=306.68           C8-C7-C6-H23=161.53           C11-C7-C6-C5=237.21           
C11-C7-C6-H22=126.57          C11-C7-C6-H23=341.42          C7-C8-Zr1-Cl2=279.71          C7-C8-Zr1-Cl3= 22.46          
C7-C8-Zr1-N4= 75.27           C7-C8-Zr1-C5= 54.78           C7-C8-Zr1-C9=247.87           C7-C8-Zr1-C10=280.58          
C7-C8-Zr1-C11=320.88          C7-C8-Zr1-C15= 94.49          C7-C8-Zr1-C17=141.73          C7-C8-Zr1-C18=172.70          
C7-C8-Zr1-C19=210.10          C7-C8-Zr1-C20=196.66          C7-C8-Zr1-C21=162.40          C9-C8-Zr1-Cl2= 31.84          
C9-C8-Zr1-Cl3=134.58          C9-C8-Zr1-N4=187.40           C9-C8-Zr1-C5=166.91           C9-C8-Zr1-C7=112.13           
C9-C8-Zr1-C10= 32.70          C9-C8-Zr1-C11= 73.00          C9-C8-Zr1-C15=206.62          C9-C8-Zr1-C17=253.86          
C9-C8-Zr1-C18=284.83          C9-C8-Zr1-C19=322.22          C9-C8-Zr1-C20=308.79          C9-C8-Zr1-C21=274.53          
H24-C8-Zr1-Cl2=160.12         H24-C8-Zr1-Cl3=262.87         H24-C8-Zr1-N4=315.68          H24-C8-Zr1-C5=295.19          
H24-C8-Zr1-C7=240.41          H24-C8-Zr1-C9=128.28          H24-C8-Zr1-C10=160.99         H24-C8-Zr1-C11=201.29         
H24-C8-Zr1-C15=334.90         H24-C8-Zr1-C17= 22.14         H24-C8-Zr1-C18= 53.11         H24-C8-Zr1-C19= 90.51         
H24-C8-Zr1-C20= 77.07         H24-C8-Zr1-C21= 42.81         Zr1-C8-C7-C6=246.91           Zr1-C8-C7-C11= 67.01          
C9-C8-C7-Zr1=287.08           C9-C8-C7-C6=173.99            C9-C8-C7-C11=354.09           H24-C8-C7-Zr1=107.76          
H24-C8-C7-C6=354.67           H24-C8-C7-C11=174.77          C8-C9-Zr1-Cl2=207.95          C8-C9-Zr1-Cl3=287.14          
C8-C9-Zr1-N4=  8.30           C8-C9-Zr1-C5=347.53           C8-C9-Zr1-C7=319.11           C8-C9-Zr1-C10=238.16          
C8-C9-Zr1-C11=274.28          C8-C9-Zr1-C15= 33.79          C8-C9-Zr1-C17= 97.21          C8-C9-Zr1-C18=142.82          
C8-C9-Zr1-C19=149.81          C8-C9-Zr1-C20=125.02          C8-C9-Zr1-C21= 92.83          C10-C9-Zr1-Cl2=329.79         
C10-C9-Zr1-Cl3= 48.98         C10-C9-Zr1-N4=130.14          C10-C9-Zr1-C5=109.37          C10-C9-Zr1-C7= 80.95          
C10-C9-Zr1-C8=121.84          C10-C9-Zr1-C11= 36.12         C10-C9-Zr1-C15=155.63         C10-C9-Zr1-C17=219.05         
C10-C9-Zr1-C18=264.65         C10-C9-Zr1-C19=271.65         C10-C9-Zr1-C20=246.86         C10-C9-Zr1-C21=214.67         
H25-C9-Zr1-Cl2= 94.99         H25-C9-Zr1-Cl3=174.18         H25-C9-Zr1-N4=255.33          H25-C9-Zr1-C5=234.56          
H25-C9-Zr1-C7=206.14          H25-C9-Zr1-C8=247.03          H25-C9-Zr1-C10=125.20         H25-C9-Zr1-C11=161.32         
H25-C9-Zr1-C15=280.83         H25-C9-Zr1-C17=344.24         H25-C9-Zr1-C18= 29.85         H25-C9-Zr1-C19= 36.85         
H25-C9-Zr1-C20= 12.05         H25-C9-Zr1-C21=339.87         Zr1-C9-C8-C7= 64.11           Zr1-C9-C8-H24=243.40          
C10-C9-C8-Zr1=299.74          C10-C9-C8-C7=  3.86           C10-C9-C8-H24=183.14          H25-C9-C8-Zr1=120.44          
H25-C9-C8-C7=184.56           H25-C9-C8-H24=  3.84          C9-C10-Zr1-Cl2=144.10         C9-C10-Zr1-Cl3=211.91         
C9-C10-Zr1-N4=288.57          C9-C10-Zr1-C5=279.37          C9-C10-Zr1-C7=281.40          C9-C10-Zr1-C8=324.99          
C9-C10-Zr1-C11=240.47         C9-C10-Zr1-C15=311.07         C9-C10-Zr1-C17= 65.64         C9-C10-Zr1-C18=111.11         
C9-C10-Zr1-C19= 94.49         C9-C10-Zr1-C20= 61.07         C9-C10-Zr1-C21= 38.03         C11-C10-Zr1-Cl2=263.63        
C11-C10-Zr1-Cl3=331.44        C11-C10-Zr1-N4= 48.10         C11-C10-Zr1-C5= 38.90         C11-C10-Zr1-C7= 40.93         
C11-C10-Zr1-C8= 84.53         C11-C10-Zr1-C9=119.53         C11-C10-Zr1-C15= 70.61        C11-C10-Zr1-C17=185.17        
C11-C10-Zr1-C18=230.64        C11-C10-Zr1-C19=214.02        C11-C10-Zr1-C20=180.60        C11-C10-Zr1-C21=157.57        
H26-C10-Zr1-Cl2= 19.83        H26-C10-Zr1-Cl3= 87.65        H26-C10-Zr1-N4=164.31         H26-C10-Zr1-C5=155.10         
H26-C10-Zr1-C7=157.14         H26-C10-Zr1-C8=200.73         H26-C10-Zr1-C9=235.73         H26-C10-Zr1-C11=116.20        
H26-C10-Zr1-C15=186.81        H26-C10-Zr1-C17=301.37        H26-C10-Zr1-C18=346.84        H26-C10-Zr1-C19=330.23        
H26-C10-Zr1-C20=296.80        H26-C10-Zr1-C21=273.77        Zr1-C10-C9-C8= 53.98          Zr1-C10-C9-H25=233.25         
C11-C10-C9-Zr1=305.74         C11-C10-C9-C8=359.72          C11-C10-C9-H25=178.99         H26-C10-C9-Zr1=124.60         
H26-C10-C9-C8=178.58          H26-C10-C9-H25=357.85         

 CMA Distance (Angstroems)
 ---------------------------
R(CMA):  1.6635
           -------------------------------------------------
          |                Final Singlepoint                |
           -------------------------------------------------

          ...................................................
          :                      SETUP                      :
          :.................................................:
          :  # basis functions                 117          :
          :  # atomic orbitals                 114          :
          :  # shells                           60          :
          :  # electrons                       106          :
          :  max. iterations                   250          :
          :  Hamiltonian                  GFN2-xTB          :
          :  restarted?                      false          :
          :  GBSA solvation                  false          :
          :  PC potential                    false          :
          :  electronic temp.          300.0000000     K    :
          :  accuracy                    1.0000000          :
          :  -> integral cutoff          0.2500000E+02      :
          :  -> integral neglect         0.1000000E-07      :
          :  -> SCF convergence          0.1000000E-05 Eh   :
          :  -> wf. convergence          0.1000000E-03 e    :
          :  Broyden damping             0.4000000          :
          :  net charge                          0          :
          :  unpaired electrons                  0          :
          ...................................................

 iter      E             dE          RMSdq      gap      omega  full diag
   1    -57.4336025 -0.574336E+02  0.483E-01    0.19       0.0  T
   2    -57.4324507  0.115175E-02  0.440E-01    0.56       1.0  T
   3    -57.4358260 -0.337527E-02  0.270E-01    0.33       1.0  T
   4    -57.4352418  0.584158E-03  0.214E-01    0.26       1.0  T
   5    -57.4366888 -0.144698E-02  0.688E-02    0.31       1.0  T
   6    -57.4368024 -0.113552E-03  0.300E-02    0.31       1.0  T
   7    -57.4368117 -0.936843E-05  0.210E-02    0.32       1.0  T
   8    -57.4368231 -0.113688E-04  0.106E-02    0.33       1.6  T
   9    -57.4368243 -0.118387E-05  0.731E-03    0.32       2.3  T
  10    -57.4368259 -0.157105E-05  0.380E-03    0.32       4.4  T
  11    -57.4368261 -0.214580E-06  0.301E-03    0.32       5.5  T
  12    -57.4368262 -0.106931E-06  0.212E-03    0.32       7.9  T
  13    -57.4368262 -0.580548E-07  0.123E-03    0.32      13.5  T
  14    -57.4368263 -0.228490E-07  0.691E-04    0.32      24.1  T
  15    -57.4368263 -0.806943E-08  0.387E-04    0.32      43.0  T

   *** convergence criteria satisfied after 15 iterations ***

         #    Occupation            Energy/Eh            Energy/eV
      -------------------------------------------------------------
         1        2.0000           -1.0952959             -29.8045
       ...           ...                  ...                  ...
        47        2.0000           -0.3916787             -10.6581
        48        2.0000           -0.3883276             -10.5669
        49        2.0000           -0.3724621             -10.1352
        50        2.0000           -0.3638125              -9.8998
        51        2.0000           -0.3560172              -9.6877
        52        2.0000           -0.3359826              -9.1426
        53        1.9960           -0.3140483              -8.5457 (HOMO)
        54        0.0040           -0.3022426              -8.2244 (LUMO)
        55        0.0000           -0.2924348              -7.9576
        56                         -0.2490849              -6.7779
        57                         -0.2411537              -6.5621
        58                         -0.2348066              -6.3894
       ...                                ...                  ...
       114                          3.7522248             102.1032
      -------------------------------------------------------------
                  HL-Gap            0.0118057 Eh            0.3213 eV
             Fermi-level           -0.3081454 Eh           -8.3851 eV

 SCC (total)                   0 d,  0 h,  0 min,  0.054 sec
 SCC setup                      ...        0 min,  0.000 sec (  0.462%)
 Dispersion                     ...        0 min,  0.001 sec (  1.067%)
 classical contributions        ...        0 min,  0.000 sec (  0.229%)
 integral evaluation            ...        0 min,  0.002 sec (  4.581%)
 iterations                     ...        0 min,  0.038 sec ( 69.631%)
 molecular gradient             ...        0 min,  0.013 sec ( 23.433%)
 printout                       ...        0 min,  0.000 sec (  0.531%)

         :::::::::::::::::::::::::::::::::::::::::::::::::::::
         ::                     SUMMARY                     ::
         :::::::::::::::::::::::::::::::::::::::::::::::::::::
         :: total energy             -56.868258898429 Eh    ::
         :: gradient norm              0.063375441054 Eh/a0 ::
         :: HOMO-LUMO gap              0.321250646625 eV    ::
         ::.................................................::
         :: SCC energy               -57.435652664263 Eh    ::
         :: -> isotropic ES            0.032756940894 Eh    ::
         :: -> anisotropic ES          0.001420755755 Eh    ::
         :: -> anisotropic XC          0.037374236005 Eh    ::
         :: -> dispersion             -0.055118903616 Eh    ::
         :: repulsion energy           0.489262317313 Eh    ::
         :: add. restraining           0.078131448520 Eh    ::
         :: total charge              -0.000000000002 e     ::
         :::::::::::::::::::::::::::::::::::::::::::::::::::::

           -------------------------------------------------
          |                Property Printout                |
           -------------------------------------------------

    * Orbital Energies and Occupations

         #    Occupation            Energy/Eh            Energy/eV
      -------------------------------------------------------------
         1        2.0000           -1.0952959             -29.8045
       ...           ...                  ...                  ...
        41        2.0000           -0.4276485             -11.6369
        42        2.0000           -0.4239733             -11.5369
        43        2.0000           -0.4209494             -11.4546
        44        2.0000           -0.4158651             -11.3163
        45        2.0000           -0.4073269             -11.0839
        46        2.0000           -0.4004843             -10.8977
        47        2.0000           -0.3916787             -10.6581
        48        2.0000           -0.3883276             -10.5669
        49        2.0000           -0.3724621             -10.1352
        50        2.0000           -0.3638125              -9.8998
        51        2.0000           -0.3560172              -9.6877
        52        2.0000           -0.3359826              -9.1426
        53        1.9960           -0.3140483              -8.5457 (HOMO)
        54        0.0040           -0.3022426              -8.2244 (LUMO)
        55        0.0000           -0.2924348              -7.9576
        56                         -0.2490849              -6.7779
        57                         -0.2411537              -6.5621
        58                         -0.2348066              -6.3894
        59                         -0.2216737              -6.0320
        60                         -0.1937419              -5.2720
        61                         -0.1822024              -4.9580
        62                         -0.1794914              -4.8842
        63                         -0.1783567              -4.8533
        64                         -0.1730144              -4.7080
       ...                                ...                  ...
       114                          3.7522248             102.1032
      -------------------------------------------------------------
                  HL-Gap            0.0118057 Eh            0.3213 eV
             Fermi-level           -0.3081454 Eh           -8.3851 eV

     #   Z          covCN         q      C6AA      α(0)
     1  40 Zr      10.569     1.032   136.690    17.568
     2  17 Cl       2.360    -0.421   112.965    16.261
     3  17 Cl       1.828    -0.286   108.318    15.923
     4   7 N        3.356    -0.173    24.737     7.387
     5   6 C        3.252     0.058    25.683     8.201
     6   6 C        3.278    -0.037    27.461     8.436
     7   6 C        3.808    -0.057    21.598     6.616
     8   6 C        3.443    -0.084    24.928     7.573
     9   6 C        3.437    -0.067    24.693     7.557
    10   6 C        3.901    -0.030    21.050     6.522
    11   6 C        3.739    -0.082    22.144     6.714
    12   6 C        2.669    -0.047    29.135     8.832
    13   6 C        2.670    -0.035    28.842     8.788
    14   6 C        2.667    -0.048    29.157     8.835
    15   6 C        3.166     0.047    26.610     8.430
    16   6 C        3.243    -0.035    27.892     8.560
    17   6 C        3.885    -0.059    21.582     6.605
    18   6 C        3.509    -0.077    23.562     7.180
    19   6 C        4.076    -0.030    21.016     6.512
    20   6 C        3.420    -0.070    25.132     7.678
    21   6 C        3.448    -0.090    24.956     7.563
    22   1 H        0.673     0.050     2.541     2.548
    23   1 H        0.677     0.086     2.089     2.308
    24   1 H        0.634    -0.002     3.546     3.041
    25   1 H        0.680    -0.001     3.334     2.914
    26   1 H        0.694     0.051     2.477     2.505
    27   1 H        0.650     0.064     2.414     2.497
    28   1 H        0.763     0.054     2.342     2.412
    29   1 H        0.774     0.031     2.639     2.558
    30   1 H        0.762     0.054     2.346     2.414
    31   1 H        0.672     0.057     2.450     2.502
    32   1 H        0.670     0.047     2.586     2.572
    33   1 H        0.665     0.050     2.550     2.557
    34   1 H        0.685     0.042     2.623     2.582
    35   1 H        0.683     0.011     3.118     2.816
    36   1 H        0.633    -0.002     3.554     3.045

 Mol. C6AA /au·bohr⁶  :      21624.874622
 Mol. C8AA /au·bohr⁸  :     724481.773015
 Mol. α(0) /au        :        227.009266


Wiberg/Mayer (AO) data.
largest (>0.10) Wiberg bond orders for each atom

 ---------------------------------------------------------------------------
     #   Z sym  total        # sym  WBO       # sym  WBO       # sym  WBO
 ---------------------------------------------------------------------------
     1  40 Zr   4.473 --     3 Cl   0.697     2 Cl   0.680     4 N    0.438
                            11 C    0.259     8 C    0.248    21 C    0.247
                            18 C    0.242    17 C    0.209     7 C    0.207
                            19 C    0.167     9 C    0.167    20 C    0.165
                            10 C    0.152
     2  17 Cl   1.093 --     1 Zr   0.680
     3  17 Cl   1.295 --     1 Zr   0.697     4 N    0.202    15 C    0.111
     4   7 N    3.395 --    15 C    1.243     5 C    1.205     1 Zr   0.438
                             3 Cl   0.202
     5   6 C    3.938 --    12 C    1.415     4 N    1.205     6 C    0.975
                            14 C    0.104
     6   6 C    3.945 --     5 C    0.975    22 H    0.947     7 C    0.933
                            23 H    0.915
     7   6 C    3.960 --    11 C    1.286     8 C    1.268     6 C    0.933
                             1 Zr   0.207
     8   6 C    3.934 --     7 C    1.268     9 C    1.218    24 H    0.887
                             1 Zr   0.248
     9   6 C    3.942 --    10 C    1.407     8 C    1.218    25 H    0.915
                             1 Zr   0.167
    10   6 C    3.953 --     9 C    1.407    11 C    1.245    26 H    0.921
                             1 Zr   0.152
    11   6 C    3.941 --     7 C    1.286    10 C    1.245    27 H    0.885
                             1 Zr   0.259
    12   6 C    3.918 --     5 C    1.415    13 C    1.344    28 H    0.952
    13   6 C    3.918 --    14 C    1.415    12 C    1.344    29 H    0.957
    14   6 C    3.921 --    13 C    1.415    15 C    1.336    30 H    0.952
                             5 C    0.104
    15   6 C    3.933 --    14 C    1.336     4 N    1.243    16 C    0.973
                             3 Cl   0.111
    16   6 C    3.946 --    15 C    0.973    32 H    0.947    17 C    0.938
                            31 H    0.933
    17   6 C    3.957 --    18 C    1.298    21 C    1.235    16 C    0.938
                             1 Zr   0.209
    18   6 C    3.946 --    17 C    1.298    19 C    1.253    33 H    0.900
                             1 Zr   0.242    21 C    0.100
    19   6 C    3.953 --    20 C    1.349    18 C    1.253    34 H    0.919
                             1 Zr   0.167
    20   6 C    3.939 --    19 C    1.349    21 C    1.269    35 H    0.913
                             1 Zr   0.165
    21   6 C    3.930 --    20 C    1.269    17 C    1.235    36 H    0.886
                             1 Zr   0.247    18 C    0.100
    22   1 H    0.996 --     6 C    0.947
    23   1 H    0.990 --     6 C    0.915
    24   1 H    0.999 --     8 C    0.887
    25   1 H    0.997 --     9 C    0.915
    26   1 H    0.995 --    10 C    0.921
    27   1 H    0.995 --    11 C    0.885
    28   1 H    0.995 --    12 C    0.952
    29   1 H    0.997 --    13 C    0.957
    30   1 H    0.995 --    14 C    0.952
    31   1 H    0.994 --    16 C    0.933
    32   1 H    0.996 --    16 C    0.947
    33   1 H    0.994 --    18 C    0.900
    34   1 H    0.996 --    19 C    0.919
    35   1 H    0.996 --    20 C    0.913
    36   1 H    0.999 --    21 C    0.886
 ---------------------------------------------------------------------------

Topologies differ in total number of bonds
Writing topology from bond orders to xtbtopo.mol

molecular dipole:
                 x           y           z       tot (Debye)
 q only:        0.437       0.100       1.591
   full:       -0.424      -0.004       2.552       6.576
molecular quadrupole (traceless):
                xx          xy          yy          xz          yz          zz
 q only:       -6.176       2.191       5.147       4.996      -0.887       1.030
  q+dip:       -5.956       0.800      -1.384       6.791      -0.495       7.340
   full:       -5.537       0.627       1.235       6.611      -0.392       4.303

           -------------------------------------------------
          |                Geometry Summary                 |
           -------------------------------------------------

      molecular mass/u    :      395.4378415
   center of mass at/Å    :        0.0804154       0.0108463       0.4481120
  moments of inertia/u·Å² :        0.1101632E+04   0.1697079E+04   0.2095843E+04
rotational constants/cm⁻¹ :        0.1530242E-01   0.9933319E-02   0.8043367E-02

 * 25 selected distances

     #   Z          #   Z                                           value/Å
     1  40 Zr       2  17 Cl                                      2.0261740
     1  40 Zr       3  17 Cl                                      2.1029266
     1  40 Zr       4   7 N                                       1.7963993
     4   7 N        5   6 C                                       1.4855526
     1  40 Zr       7   6 C                                       2.2110988
     1  40 Zr       8   6 C                                       2.2917452
     7   6 C        8   6 C                                       1.4341959
     1  40 Zr       9   6 C                                       2.5244888
     8   6 C        9   6 C                                       1.4720307
     1  40 Zr      10   6 C                                       2.5435335 (max)
     9   6 C       10   6 C                                       1.4334881
     1  40 Zr      11   6 C                                       2.2954804
     7   6 C       11   6 C                                       1.4611829
    10   6 C       11   6 C                                       1.4696142
     4   7 N       15   6 C                                       1.4861506
     1  40 Zr      17   6 C                                       2.2367098
     1  40 Zr      18   6 C                                       2.3313778
    17   6 C       18   6 C                                       1.4310621 (min)
     1  40 Zr      19   6 C                                       2.4959634
    18   6 C       19   6 C                                       1.4718799
     1  40 Zr      20   6 C                                       2.5058445
    19   6 C       20   6 C                                       1.4705169
     1  40 Zr      21   6 C                                       2.2813442
    17   6 C       21   6 C                                       1.4769409
    20   6 C       21   6 C                                       1.4393603

 * 5 distinct bonds (by element types)

   Z      Z             #   av. dist./Å        max./Å        min./Å
   6 C    6 C          10     1.4560272     1.4769409     1.4310621
   6 C    7 N           2     1.4858516     1.4861506     1.4855526
   6 C   40 Zr         10     2.3717586     2.5435335     2.2110988
   7 N   40 Zr          1     1.7963993     1.7963993     1.7963993
  17 Cl  40 Zr          2     2.0645503     2.1029266     2.0261740


optimized geometry written to: xtbopt.xyz


           -------------------------------------------------
          | TOTAL ENERGY              -56.868258898429 Eh   |
          | GRADIENT NORM               0.063375441054 Eh/α |
          | HOMO-LUMO GAP               0.321250646625 eV   |
           -------------------------------------------------

------------------------------------------------------------------------
 * finished run on 2026/03/05 at 12:39:40.903     
------------------------------------------------------------------------
 total:
 * wall-time:     0 d,  0 h,  0 min,  0.657 sec
 *  cpu-time:     0 d,  0 h,  0 min,  4.016 sec
 * ratio c/w:     6.109 speedup
 SCF:
 * wall-time:     0 d,  0 h,  0 min,  0.101 sec
 *  cpu-time:     0 d,  0 h,  0 min,  0.500 sec
 * ratio c/w:     4.950 speedup
 ANC optimizer:
 * wall-time:     0 d,  0 h,  0 min,  0.521 sec
 *  cpu-time:     0 d,  0 h,  0 min,  3.328 sec
 * ratio c/w:     6.385 speedup

