      -----------------------------------------------------------      
     |                   =====================                   |     
     |                           x T B                           |     
     |                   =====================                   |     
     |                         S. Grimme                         |     
     |          Mulliken Center for Theoretical Chemistry        |     
     |                    University of Bonn                     |     
      -----------------------------------------------------------      

   * xtb version 6.7.1 (edcfbbe) compiled by 'VssAdministrator@runnervmowedg' on 2025-09-04

   xtb is free software: you can redistribute it and/or modify it under
   the terms of the GNU Lesser General Public License as published by
   the Free Software Foundation, either version 3 of the License, or
   (at your option) any later version.
   
   xtb is distributed in the hope that it will be useful,
   but WITHOUT ANY WARRANTY; without even the implied warranty of
   MERCHANTABILITY or FITNESS FOR A PARTICULAR PURPOSE.  See the
   GNU Lesser General Public License for more details.
   
   Cite this work as:
   * C. Bannwarth, E. Caldeweyher, S. Ehlert, A. Hansen, P. Pracht,
     J. Seibert, S. Spicher, S. Grimme, WIREs Comput. Mol. Sci., 2020, 11,
     e01493. DOI: 10.1002/wcms.1493
   
   for GFN2-xTB:
   * C. Bannwarth, S. Ehlert and S. Grimme., J. Chem. Theory Comput., 2019,
     15, 1652-1671. DOI: 10.1021/acs.jctc.8b01176
   for GFN1-xTB:
   * S. Grimme, C. Bannwarth, P. Shushkov, J. Chem. Theory Comput., 2017,
     13, 1989-2009. DOI: 10.1021/acs.jctc.7b00118
   for GFN0-xTB:
   * P. Pracht, E. Caldeweyher, S. Ehlert, S. Grimme, ChemRxiv, 2019, preprint.
     DOI: 10.26434/chemrxiv.8326202.v1
   for GFN-FF:
   * S. Spicher and S. Grimme, Angew. Chem. Int. Ed., 2020, 59, 15665-15673.
     DOI: 10.1002/anie.202004239
   
   for ALPB and GBSA implicit solvation:
   * S. Ehlert, M. Stahn, S. Spicher, S. Grimme, J. Chem. Theory Comput.,
     2021, 17, 4250-4261. DOI: 10.1021/acs.jctc.1c00471
   
   for ddCOSMO and CPCM-X implicit solvation:
   * M. Stahn, S. Ehlert, S. Grimme, J. Phys. Chem. A,
     2023, XX, XXXX-XXXX. DOI: 10.1021/acs.jpca.3c04382
   
   for DFT-D4:
   * E. Caldeweyher, C. Bannwarth and S. Grimme, J. Chem. Phys., 2017,
     147, 034112. DOI: 10.1063/1.4993215
   * E. Caldeweyher, S. Ehlert, A. Hansen, H. Neugebauer, S. Spicher,
     C. Bannwarth and S. Grimme, J. Chem. Phys., 2019, 150, 154122.
     DOI: 10.1063/1.5090222
   * E. Caldeweyher, J.-M. Mewes, S. Ehlert and S. Grimme, Phys. Chem. Chem. Phys.
     2020, 22, 8499-8512. DOI: 10.1039/D0CP00502A
   
   for sTDA-xTB:
   * S. Grimme and C. Bannwarth, J. Chem. Phys., 2016, 145, 054103.
     DOI: 10.1063/1.4959605
   
   in the mass-spec context:
   * V. Asgeirsson, C. Bauer and S. Grimme, Chem. Sci., 2017, 8, 4879.
     DOI: 10.1039/c7sc00601b
   * J. Koopman and S. Grimme, ACS Omega 2019, 4, 12, 15120-15133.
     DOI: 10.1021/acsomega.9b02011
   
   for metadynamics refer to:
   * S. Grimme, J. Chem. Theory Comput., 2019, 155, 2847-2862
     DOI: 10.1021/acs.jctc.9b00143
   
   for SPH calculations refer to:
   * S. Spicher and S. Grimme, J. Chem. Theory Comput., 2021, 17, 1701-1714
     DOI: 10.1021/acs.jctc.0c01306
   
   for ONIOM refer to:
   * C. Plett, A. Katbashev, S. Ehlert, S. Grimme, M. Bursch,
     Phys. Chem. Chem. Phys., 2023, 25, 17860-17868. DOI: 10.1039/D3CP02178E
   
   for DIPRO refer to:
   * J. Kohn, N. Gildemeister, S. Grimme, D. Fazzi, A. Hansen,
     J. Chem. Phys., 2023, just accepted.
   
   for PTB refer to:
   * S. Grimme, M. Mueller, A. Hansen, J. Chem. Phys., 2023, 158, 124111.
     DOI: 10.1063/5.0137838
   
   with help from (in alphabetical order)
   P. Atkinson, C. Bannwarth, F. Bohle, G. Brandenburg, E. Caldeweyher
   M. Checinski, S. Dohm, S. Ehlert, S. Ehrlich, I. Gerasimov, C. Hölzer
   A. Katbashev, J. Kohn, J. Koopman, C. Lavigne, S. Lehtola, F. März, M. Müller,
   F. Musil, H. Neugebauer, J. Pisarek, C. Plett, P. Pracht, F. Pultar,
   J. Seibert, P. Shushkov, S. Spicher, M. Stahn, M. Steiner, T. Strunk,
   J. Stückrath, T. Rose, and J. Unsleber
   
 * started run on 2026/03/05 at 12:14:05.028     
   ID    Z sym.   atoms
    1   40 Zr     1
    2   17 Cl     2, 3
    3    7 N      4
    4    6 C      5-21
    5    1 H      22-36

           -------------------------------------------------
          |                Calculation Setup                |
           -------------------------------------------------

          program call               : xtb qc_relax_2.xyz --opt --chrg 0 --uhf 0 --cycles 5 --input xcontrol
          coordinate file            : qc_relax_2.xyz
          omp threads                :                    12


molecular fragmentation (1/2 indicates fragments):
111111111111111111111122121111112222
# atoms in fragment 1/2:    29     7
 fragment masses (1/2) :      388.38        7.06
CMA distance (Bohr)    :   3.026
constraining FC (au)   :  1.0000

           -------------------------------------------------
          |                 G F N 2 - x T B                 |
           -------------------------------------------------

        Reference                      10.1021/acs.jctc.8b01176
      * Hamiltonian:
        H0-scaling (s, p, d)           1.850000    2.230000    2.230000
        zeta-weighting                 0.500000
      * Dispersion:
        s8                             2.700000
        a1                             0.520000
        a2                             5.000000
        s9                             5.000000
      * Repulsion:
        kExp                           1.500000    1.000000
        rExp                           1.000000
      * Coulomb:
        alpha                          2.000000
        third order                    shell-resolved
        anisotropic                    true
        a3                             3.000000
        a5                             4.000000
        cn-shift                       1.200000
        cn-exp                         4.000000
        max-rad                        5.000000

q/qsh data taken from xtbrestart
CAMM data taken from xtbrestart

          ...................................................
          :                      SETUP                      :
          :.................................................:
          :  # basis functions                 117          :
          :  # atomic orbitals                 114          :
          :  # shells                           60          :
          :  # electrons                       106          :
          :  max. iterations                   250          :
          :  Hamiltonian                  GFN2-xTB          :
          :  restarted?                       true          :
          :  GBSA solvation                  false          :
          :  PC potential                    false          :
          :  electronic temp.          300.0000000     K    :
          :  accuracy                    1.0000000          :
          :  -> integral cutoff          0.2500000E+02      :
          :  -> integral neglect         0.1000000E-07      :
          :  -> SCF convergence          0.1000000E-05 Eh   :
          :  -> wf. convergence          0.1000000E-03 e    :
          :  Broyden damping             0.4000000          :
          :  net charge                          0          :
          :  unpaired electrons                  0          :
          ...................................................

 iter      E             dE          RMSdq      gap      omega  full diag
   1    -56.9059491 -0.569059E+02  0.778E-01    0.10       0.0  T
   2    -56.7942291  0.111720E+00  0.178E+00    0.27       1.0  T
   3    -56.9067421 -0.112513E+00  0.559E-01    0.13       1.0  T
   4    -56.9093807 -0.263866E-02  0.493E-01    0.05       1.0  T
   5    -56.9076709  0.170981E-02  0.501E-01    0.12       1.0  T
   6    -56.9157784 -0.810749E-02  0.323E-01    0.10       1.0  T
   7    -56.9154895  0.288885E-03  0.284E-01    0.10       1.0  T
   8    -56.9167816 -0.129210E-02  0.142E-01    0.08       1.0  T
   9    -56.9181429 -0.136131E-02  0.759E-02    0.08       1.0  T
  10    -56.9182189 -0.759409E-04  0.559E-02    0.08       1.0  T
  11    -56.9182585 -0.395969E-04  0.306E-02    0.08       1.0  T
  12    -56.9182620 -0.352034E-05  0.228E-02    0.08       1.0  T
  13    -56.9182678 -0.581536E-05  0.239E-02    0.08       1.0  T
  14    -56.9182755 -0.771600E-05  0.120E-02    0.08       1.4  T
  15    -56.9182762 -0.705483E-06  0.126E-02    0.08       1.3  T
  16    -56.9182762  0.319335E-07  0.132E-02    0.08       1.3  T
  17    -56.9182791 -0.288587E-05  0.525E-03    0.08       3.2  T
  18    -56.9182796 -0.512326E-06  0.228E-03    0.08       7.3  T
  19    -56.9182797 -0.104714E-06  0.946E-04    0.08      17.6  T
  20    -56.9182797 -0.847973E-08  0.767E-04    0.08      21.7  T

   *** convergence criteria satisfied after 20 iterations ***

         #    Occupation            Energy/Eh            Energy/eV
      -------------------------------------------------------------
         1        2.0000           -1.0984763             -29.8911
       ...           ...                  ...                  ...
        47        2.0000           -0.4081754             -11.1070
        48        2.0000           -0.4022887             -10.9468
        49        2.0000           -0.3903167             -10.6211
        50        2.0000           -0.3689784             -10.0404
        51        2.0000           -0.3630181              -9.8782
        52        2.0000           -0.3497682              -9.5177
        53        1.6557           -0.3402903              -9.2598 (HOMO)
        54        0.3443           -0.3373064              -9.1786 (LUMO)
        55        0.0000           -0.3275195              -8.9123
        56                         -0.3154883              -8.5849
        57                         -0.2937794              -7.9941
        58                         -0.2875745              -7.8253
       ...                                ...                  ...
       114                          2.5996545              70.7402
      -------------------------------------------------------------
                  HL-Gap            0.0029840 Eh            0.0812 eV
             Fermi-level           -0.3387983 Eh           -9.2192 eV

 SCC (total)                   0 d,  0 h,  0 min,  0.177 sec
 SCC setup                      ...        0 min,  0.001 sec (  0.320%)
 Dispersion                     ...        0 min,  0.001 sec (  0.610%)
 classical contributions        ...        0 min,  0.001 sec (  0.291%)
 integral evaluation            ...        0 min,  0.012 sec (  6.729%)
 iterations                     ...        0 min,  0.119 sec ( 67.204%)
 molecular gradient             ...        0 min,  0.044 sec ( 24.585%)
 printout                       ...        0 min,  0.000 sec (  0.240%)

         :::::::::::::::::::::::::::::::::::::::::::::::::::::
         ::                     SUMMARY                     ::
         :::::::::::::::::::::::::::::::::::::::::::::::::::::
         :: total energy             -56.622996757525 Eh    ::
         :: gradient norm              0.201056215728 Eh/a0 ::
         :: HOMO-LUMO gap              0.081197964132 eV    ::
         ::.................................................::
         :: SCC energy               -56.916753399166 Eh    ::
         :: -> isotropic ES            0.044019540719 Eh    ::
         :: -> anisotropic ES          0.001724331041 Eh    ::
         :: -> anisotropic XC          0.047993417416 Eh    ::
         :: -> dispersion             -0.052971914924 Eh    ::
         :: repulsion energy           0.293756641641 Eh    ::
         :: add. restraining           0.000000000000 Eh    ::
         :: total charge               0.000000000000 e     ::
         :::::::::::::::::::::::::::::::::::::::::::::::::::::

      ----------------------------------------------------------- 
     |                   =====================                   |
     |                        A N C O P T                        |
     |                   =====================                   |
     |               Approximate Normal Coordinate               |
     |                Rational Function Optimizer                |
      ----------------------------------------------------------- 
      ----------------------------------------------------------- 
     |                   =====================                   |
     |                        A N C O P T                        |
     |                   =====================                   |
     |               Approximate Normal Coordinate               |
     |                Rational Function Optimizer                |
      ----------------------------------------------------------- 

          ...................................................
          :                      SETUP                      :
          :.................................................:
          :   optimization level            normal          :
          :   max. optcycles                     5          :
          :   ANC micro-cycles                   5          :
          :   degrees of freedom               102          :
          :.................................................:
          :   RF solver                   davidson          :
          :   write xtbopt.log                true          :
          :   linear?                        false          :
          :   energy convergence         0.5000000E-05 Eh   :
          :   grad. convergence          0.1000000E-02 Eh/α :
          :   maxmium RF displ.          1.0000000          :
          :   Hlow (freq-cutoff)         0.1000000E-01      :
          :   Hmax (freq-cutoff)         5.0000000          :
          :   S6 in model hess.         20.0000000          :
          ...................................................

generating ANC from exact Hessian ...
Using Lindh-Hessian (1995)
 Shifting diagonal of input Hessian by    9.7129387016988231E-003
 Lowest  eigenvalues of input Hessian
    0.000000    0.000000    0.000000    0.000000    0.000000    0.000000
    0.010000    0.010279    0.010844    0.011635    0.012351    0.012421
    0.013138    0.013445    0.013803    0.014408    0.014720    0.015192
 Highest eigenvalues
    1.806014    1.866914    1.950075    2.043570    2.377085    2.629505


........................................................................
.............................. CYCLE    1 ..............................
........................................................................

 iter      E             dE          RMSdq      gap      omega  full diag
   1    -56.9182797 -0.569183E+02  0.816E-04    0.08       0.0  T
   2    -56.9182793  0.444748E-06  0.357E-03    0.08       4.7  T
   3    -56.9182797 -0.426273E-06  0.103E-03    0.08      16.2  T
   4    -56.9182797 -0.183763E-07  0.650E-04    0.08      25.7  T
   5    -56.9182797 -0.610528E-08  0.595E-04    0.08      28.0  T
     SCC iter.                  ...        0 min,  0.024 sec
     gradient                   ...        0 min,  0.043 sec
 * total energy  :   -56.6229968 Eh     change       -0.7729234E-08 Eh
   gradient norm :     0.2010560 Eh/α   predicted     0.0000000E+00 (-100.00%)
   displ. norm   :     0.3761108 α      lambda       -0.4180853E-01
   maximum displ.:     0.1724525 α      in ANC's #44, #43, #41, ...

........................................................................
.............................. CYCLE    2 ..............................
........................................................................

 iter      E             dE          RMSdq      gap      omega  full diag
   1    -56.7631854 -0.567632E+02  0.661E-01    0.07       0.0  T
   2    -56.6812675  0.819179E-01  0.129E+00    0.24       1.0  T
   3    -56.7678325 -0.865650E-01  0.506E-01    0.11       1.0  T
   4    -56.7709263 -0.309375E-02  0.452E-01    0.04       1.0  T
   5    -56.7748878 -0.396154E-02  0.248E-01    0.08       1.0  T
   6    -56.7757616 -0.873748E-03  0.161E-01    0.08       1.0  T
   7    -56.7770514 -0.128983E-02  0.832E-02    0.08       1.0  T
   8    -56.7772177 -0.166331E-03  0.662E-02    0.08       1.0  T
   9    -56.7773303 -0.112545E-03  0.299E-02    0.07       1.0  T
  10    -56.7773671 -0.367961E-04  0.141E-02    0.07       1.2  T
  11    -56.7773728 -0.578308E-05  0.773E-03    0.07       2.2  T
  12    -56.7773731 -0.276509E-06  0.674E-03    0.07       2.5  T
  13    -56.7773743 -0.114382E-05  0.396E-03    0.07       4.2  T
  14    -56.7773744 -0.126524E-06  0.303E-03    0.07       5.5  T
  15    -56.7773744 -0.506030E-07  0.285E-03    0.07       5.9  T
  16    -56.7773747 -0.207108E-06  0.171E-03    0.07       9.8  T
  17    -56.7773747 -0.486611E-07  0.991E-04    0.07      16.8  T
  18    -56.7773747 -0.166792E-07  0.618E-04    0.07      27.0  T
     SCC iter.                  ...        0 min,  0.107 sec
     gradient                   ...        0 min,  0.047 sec
 * total energy  :   -56.5133015 Eh     change        0.1096953E+00 Eh
   gradient norm :     0.0602256 Eh/α   predicted    -0.2387830E-01 (-121.77%)
   displ. norm   :     0.5245578 α      lambda       -0.2479930E-01
   maximum displ.:     0.2539251 α      in ANC's #44, #43, #41, ...

........................................................................
.............................. CYCLE    3 ..............................
........................................................................

 iter      E             dE          RMSdq      gap      omega  full diag
   1    -56.5384411 -0.565384E+02  0.935E-01    0.07       0.0  T
   2    -56.1938016  0.344639E+00  0.218E+00    0.07       1.0  T
   3    -56.5446605 -0.350859E+00  0.889E-01    0.15       1.0  T
   4    -56.5610674 -0.164069E-01  0.609E-01    0.04       1.0  T
   5    -56.5677616 -0.669418E-02  0.516E-01    0.12       1.0  T
   6    -56.5707499 -0.298834E-02  0.298E-01    0.07       1.0  T
   7    -56.5747174 -0.396754E-02  0.246E-01    0.08       1.0  T
   8    -56.5758095 -0.109206E-02  0.162E-01    0.08       1.0  T
   9    -56.5758368 -0.273454E-04  0.151E-01    0.08       1.0  T
  10    -56.5766834 -0.846585E-03  0.651E-02    0.08       1.0  T
  11    -56.5767175 -0.340285E-04  0.438E-02    0.07       1.0  T
  12    -56.5767733 -0.558419E-04  0.315E-02    0.07       1.0  T
  13    -56.5767873 -0.140423E-04  0.239E-02    0.07       1.0  T
  14    -56.5768027 -0.153874E-04  0.120E-02    0.07       1.4  T
  15    -56.5768059 -0.312097E-05  0.854E-03    0.07       2.0  T
  16    -56.5768068 -0.912708E-06  0.661E-03    0.07       2.5  T
  17    -56.5768075 -0.734425E-06  0.461E-03    0.07       3.6  T
  18    -56.5768080 -0.516502E-06  0.214E-03    0.07       7.8  T
  19    -56.5768081 -0.951787E-07  0.124E-03    0.07      13.4  T
  20    -56.5768081 -0.199396E-08  0.117E-03    0.07      14.2  T
  21    -56.5768081 -0.728819E-08  0.109E-03    0.07      15.3  T
  22    -56.5768081 -0.546671E-08  0.918E-04    0.07      18.2  T
  23    -56.5768081 -0.161055E-07  0.541E-04    0.07      30.8  T
     SCC iter.                  ...        0 min,  0.229 sec
     gradient                   ...        0 min,  0.017 sec
 * total energy  :   -56.3324495 Eh     change        0.1808519E+00 Eh
   gradient norm :     0.0643236 Eh/α   predicted    -0.1581155E-01 (-108.74%)
   displ. norm   :     0.6553806 α      lambda       -0.2163625E-01
   maximum displ.:     0.3309171 α      in ANC's #43, #44, #41, ...

........................................................................
.............................. CYCLE    4 ..............................
........................................................................

 iter      E             dE          RMSdq      gap      omega  full diag
   1    -56.2454397 -0.562454E+02  0.138E+00    0.15       0.0  T
   2    -55.0248976  0.122054E+01  0.363E+00    0.10       1.0  T
   3    -56.2359470 -0.121105E+01  0.151E+00    0.25       1.0  T
   4    -56.2823717 -0.464247E-01  0.103E+00    0.01       1.0  T
   5    -56.3181814 -0.358097E-01  0.616E-01    0.16       1.0  T
   6    -56.3212238 -0.304246E-02  0.429E-01    0.10       1.0  T
   7    -56.3273513 -0.612744E-02  0.420E-01    0.13       1.0  T
   8    -56.3272056  0.145684E-03  0.358E-01    0.12       1.0  T
   9    -56.3309607 -0.375509E-02  0.266E-01    0.11       1.0  T
  10    -56.3331764 -0.221567E-02  0.127E-01    0.09       1.0  T
  11    -56.3334546 -0.278283E-03  0.829E-02    0.09       1.0  T
  12    -56.3336283 -0.173623E-03  0.509E-02    0.08       1.0  T
  13    -56.3336214  0.687686E-05  0.504E-02    0.08       1.0  T
  14    -56.3336901 -0.686861E-04  0.272E-02    0.08       1.0  T
  15    -56.3337031 -0.130667E-04  0.163E-02    0.08       1.0  T
  16    -56.3337065 -0.332461E-05  0.128E-02    0.08       1.3  T
  17    -56.3337059  0.582068E-06  0.108E-02    0.08       1.5  T
  18    -56.3337100 -0.410536E-05  0.616E-03    0.08       2.7  T
  19    -56.3337109 -0.952127E-06  0.313E-03    0.08       5.3  T
  20    -56.3337110 -0.217540E-07  0.270E-03    0.08       6.2  T
  21    -56.3337112 -0.212079E-06  0.135E-03    0.08      12.3  T
  22    -56.3337111  0.245238E-07  0.145E-03    0.08      11.5  T
  23    -56.3337112 -0.486274E-07  0.898E-04    0.08      18.6  T
  24    -56.3337112 -0.214302E-07  0.586E-04    0.08      28.4  T
     SCC iter.                  ...        0 min,  0.117 sec
     gradient                   ...        0 min,  0.016 sec
 * total energy  :   -56.1059615 Eh     change        0.2264880E+00 Eh
   gradient norm :     0.0799975 Eh/α   predicted    -0.1546477E-01 (-106.83%)
   displ. norm   :     0.6980220 α      lambda       -0.1895470E-01
   maximum displ.:     0.3615402 α      in ANC's #43, #44, #41, ...

........................................................................
.............................. CYCLE    5 ..............................
........................................................................

 iter      E             dE          RMSdq      gap      omega  full diag
   1    -56.0139833 -0.560140E+02  0.136E+00    0.23       0.0  T
   2    -54.8082982  0.120569E+01  0.354E+00    0.09       1.0  T
   3    -55.9278811 -0.111958E+01  0.149E+00    0.30       1.0  T
   4    -56.0284416 -0.100561E+00  0.124E+00    0.14       1.0  T
   5    -56.0775012 -0.490595E-01  0.531E-01    0.12       1.0  T
   6    -56.0688503  0.865083E-02  0.616E-01    0.15       1.0  T
   7    -56.0830137 -0.141634E-01  0.362E-01    0.13       1.0  T
   8    -56.0841775 -0.116379E-02  0.317E-01    0.10       1.0  T
   9    -56.0871866 -0.300911E-02  0.205E-01    0.13       1.0  T
  10    -56.0887551 -0.156848E-02  0.101E-01    0.12       1.0  T
  11    -56.0888571 -0.102021E-03  0.736E-02    0.12       1.0  T
  12    -56.0888852 -0.280687E-04  0.538E-02    0.11       1.0  T
  13    -56.0889364 -0.512546E-04  0.417E-02    0.12       1.0  T
  14    -56.0890146 -0.781862E-04  0.194E-02    0.12       1.0  T
  15    -56.0890188 -0.414014E-05  0.173E-02    0.12       1.0  T
  16    -56.0890209 -0.214821E-05  0.126E-02    0.12       1.3  T
  17    -56.0890224 -0.153360E-05  0.971E-03    0.12       1.7  T
  18    -56.0890247 -0.227771E-05  0.514E-03    0.12       3.2  T
  19    -56.0890250 -0.306814E-06  0.410E-03    0.12       4.1  T
  20    -56.0890255 -0.428435E-06  0.276E-03    0.12       6.0  T
  21    -56.0890256 -0.131863E-06  0.157E-03    0.12      10.6  T
  22    -56.0890256 -0.369519E-07  0.106E-03    0.12      15.7  T
  23    -56.0890256 -0.797235E-08  0.810E-04    0.12      20.6  T
  24    -56.0890257 -0.117075E-07  0.627E-04    0.12      26.6  T
     SCC iter.                  ...        0 min,  0.087 sec
     gradient                   ...        0 min,  0.018 sec
 * total energy  :   -55.8755008 Eh     change        0.2304607E+00 Eh
   gradient norm :     0.0577362 Eh/α   predicted    -0.1409505E-01 (-106.12%)
   displ. norm   :     0.6254219 α      lambda       -0.1158726E-01
   maximum displ.:     0.3003354 α      in ANC's #43, #44, #41, ...

   *** FAILED TO CONVERGE GEOMETRY OPTIMIZATION IN 5 ITERATIONS ***


 ANCopt (total)                0 d,  0 h,  0 min,  0.787 sec
 optimizer setup                ...        0 min,  0.001 sec (  0.070%)
 model hessian                  ...        0 min,  0.021 sec (  2.658%)
 ANC generation                 ...        0 min,  0.003 sec (  0.342%)
 coordinate transformation      ...        0 min,  0.000 sec (  0.018%)
 single point calculation       ...        0 min,  0.758 sec ( 96.264%)
 optimization log               ...        0 min,  0.002 sec (  0.310%)
 hessian update                 ...        0 min,  0.001 sec (  0.081%)
 rational function              ...        0 min,  0.001 sec (  0.188%)

================
 final structure:
================
36
 xtb: 6.7.1 (edcfbbe)
Zr          -0.07386561286723        0.22397327407495       -0.11854737049353
Cl          -0.13629759406605        0.13847809380199       -2.36990884333042
Cl           2.23092345625148        0.18061277947757       -0.27033547376038
N            0.14466255873248        0.16684971947061        1.86022759044691
C           -1.54278768581362        0.23391668105331        2.25882084381219
C           -2.42133180955962        1.92594709189688        2.38627824706147
C           -1.32642627320575        1.99165236812805        0.88459098022256
C           -2.26402723395817        2.18295632628220       -0.32896135729189
C           -1.35151681098393        2.90077247186705       -1.38877194857199
C            0.01972736703440        3.27944635600263       -0.73485034178575
C           -0.28681105326028        3.20347773695903        0.82414518920593
C           -2.09069765132104       -0.44760942344000        3.92178790394144
C           -0.71328203055580       -1.42654433824311        4.75421793265507
C            0.65251752122036       -2.20702363883956        3.75791198149728
C            0.95036295744989       -1.26885272061562        2.19815466732001
C            1.41516666560100       -2.25665807123636        0.74542902645718
C            0.08424646419410       -1.79014071006576       -0.37353350098777
C           -1.43506596150898       -1.67979625322467       -0.75665055405593
C           -2.31554901075867       -1.82406489794157        0.52496405521180
C           -1.26692503128832       -3.07282084282965        0.65140854677395
C           -0.11452104609624       -3.28290398469935       -0.51785509250902
H           -1.56724894353369        2.78004913690488        3.41256737245863
H           -3.76177318815645        1.15880078025979        2.11892105061487
H           -3.57597709744882        1.32556385753280       -0.65541139998696
H           -1.32311301972445        2.46494516375676       -2.91082832635451
H            1.47270182178857        3.36792387341915       -1.33454885222717
H            0.89808423325083        2.79886300421179        1.86067486315683
H           -3.31622139023270        0.11313768150639        4.64783600423828
H           -1.24898718424421       -2.37898618098283        5.85186903894521
H            1.20049179815845       -3.63064723626231        3.88225827946481
H            1.25713862353900       -3.60997439209762        1.50069866902051
H            2.58718149365272       -1.47048423909117        0.26660003220624
H           -1.97496524999401       -2.16710493885206       -2.15843630555039
H           -2.59651872535494       -0.99208042565609        1.81432851091971
H           -0.99151266945308       -3.37655747250119        2.22225521265386
H           -0.51423568748726       -3.87276663002691       -1.93325763137929

 Bond Distances (Angstroems)
 ---------------------------
Zr1-Cl2=2.2538       Zr1-Cl3=2.3102       Zr1-N4=1.9916        Zr1-C5=2.7946        Zr1-C7=2.3874        Zr1-C8=2.9460        
Zr1-C15=2.9402       Zr1-C16=3.0195       Zr1-C17=2.0363       Zr1-C18=2.4258       Zr1-C19=3.1038       Cl2-Zr1=2.2538       
Cl3-Zr1=2.3102       N4-Zr1=1.9916        N4-C5=1.7352         N4-C15=1.6807        C5-Zr1=2.7946        C5-N4=1.7352         
C5-C6=1.9108         C5-C12=1.8789        C6-C5=1.9108         C6-C7=1.8596         C7-Zr1=2.3874        C7-C6=1.8596         
C7-C8=1.5454         C7-C11=1.5978        C8-Zr1=2.9460        C8-C7=1.5454         C8-C9=1.5720         C9-C8=1.5720         
C9-C10=1.5657        C10-C9=1.5657        C10-C11=1.5907       C11-C7=1.5978        C11-C10=1.5907       C12-C5=1.8789        
C12-C13=1.8838       C13-C12=1.8838       C13-C14=1.8620       C14-C13=1.8620       C14-C15=1.8444       C15-Zr1=2.9402       
C15-N4=1.6807        C15-C14=1.8444       C15-C16=1.8172       C16-Zr1=3.0195       C16-C15=1.8172       C16-C17=1.8003       
C17-Zr1=2.0363       C17-C16=1.8003       C17-C18=1.5708       C17-C21=1.5128       C18-Zr1=2.4258       C18-C17=1.5708       
C18-C19=1.5616       C19-Zr1=3.1038       C19-C18=1.5616       C19-C20=1.6355       C20-C19=1.6355       C20-C21=1.6551       
C21-C17=1.5128       C21-C20=1.6551       
 C  C  Rav=1.7036 sigma=0.1422  Rmin=1.5128  Rmax=1.9108    18
 N  C  Rav=1.7079 sigma=0.0273  Rmin=1.6807  Rmax=1.7352     2
 Zr C  Rav=2.7067 sigma=0.3545  Rmin=2.0363  Rmax=3.1038     8
 Zr N  Rav=1.9916 sigma=0.0000  Rmin=1.9916  Rmax=1.9916     1
 Zr Cl Rav=2.2820 sigma=0.0282  Rmin=2.2538  Rmax=2.3102     2

 selected bond angles (degree)
 --------------------
Cl3-Zr1-Cl2= 87.78             N4-Zr1-Cl2=173.94              N4-Zr1-Cl3= 87.44              C5-Zr1-Cl2=146.65              
C5-Zr1-Cl3=125.48              C5-Zr1-N4= 38.05               C7-Zr1-Cl2=115.67              C7-Zr1-Cl3=124.40              
C7-Zr1-N4= 70.20               C7-Zr1-C5= 50.52               C8-Zr1-Cl2= 86.17              C8-Zr1-Cl3=138.55              
C8-Zr1-N4= 99.88               C8-Zr1-C5= 70.59               C8-Zr1-C7= 31.53               C15-Zr1-Cl2=141.03             
C15-Zr1-Cl3= 72.22             C15-Zr1-N4= 33.32              C15-Zr1-C5= 60.96              C15-Zr1-C7=103.16              
C15-Zr1-C8=130.76              C16-Zr1-Cl2=105.56             C16-Zr1-Cl3= 60.75             C16-Zr1-N4= 68.78              
C16-Zr1-C5= 91.07              C16-Zr1-C7=138.31              C16-Zr1-C8=158.97              C16-Zr1-C15= 35.47             
C17-Zr1-Cl2= 80.77             C17-Zr1-Cl3= 84.02             C17-Zr1-N4= 95.02              C17-Zr1-C5= 98.68              
C17-Zr1-C7=145.66              C17-Zr1-C8=134.95              C17-Zr1-C15= 64.50             C17-Zr1-C16= 35.41             
C18-Zr1-Cl2= 72.06             C18-Zr1-Cl3=121.86             C18-Zr1-N4=107.48              C18-Zr1-C5= 86.08              
C18-Zr1-C7=113.40              C18-Zr1-C8= 94.93              C18-Zr1-C15= 90.24             C18-Zr1-C16= 72.98             
C18-Zr1-C17= 40.04             C19-Zr1-Cl2= 99.33             C19-Zr1-Cl3=136.20             C19-Zr1-N4= 81.62              
C19-Zr1-C5= 56.38              C19-Zr1-C7= 91.29              C19-Zr1-C8= 85.22              C19-Zr1-C15= 75.71             
C19-Zr1-C16= 75.80             C19-Zr1-C17= 55.21             C19-Zr1-C18= 29.71             C5-N4-Zr1= 96.92               
C15-N4-Zr1=106.07              C15-N4-C5=116.94               N4-C5-Zr1= 45.03               C6-C5-Zr1=107.55               
C6-C5-N4=119.78                C12-C5-Zr1=154.82              C12-C5-N4=118.22               C12-C5-C6= 97.36               
C7-C6-C5= 72.95                C6-C7-Zr1=128.47               C8-C7-Zr1= 94.59               C8-C7-C6=106.34                
C11-C7-Zr1=101.79              C11-C7-C6=116.13               C11-C7-C8=105.73               C7-C8-Zr1= 53.88               
C9-C8-Zr1= 85.43               C9-C8-C7=103.52                C10-C9-C8=109.71               C11-C10-C9=103.24              

 selected dihedral angles (degree)
 ---------------------------------
C5-N4-Zr1-Cl2=216.56          C5-N4-Zr1-Cl3=178.57          C5-N4-Zr1-C7= 50.47           C5-N4-Zr1-C8= 39.66           
C5-N4-Zr1-C15=239.34          C5-N4-Zr1-C16=238.09          C5-N4-Zr1-C17=262.33          C5-N4-Zr1-C18=301.24          
C5-N4-Zr1-C19=316.04          C15-N4-Zr1-Cl2=337.22         C15-N4-Zr1-Cl3=299.23         C15-N4-Zr1-C5=120.66          
C15-N4-Zr1-C7=171.12          C15-N4-Zr1-C8=160.31          C15-N4-Zr1-C16=358.74         C15-N4-Zr1-C17= 22.99         
C15-N4-Zr1-C18= 61.90         C15-N4-Zr1-C19= 76.69         N4-C5-Zr1-Cl2=173.43          N4-C5-Zr1-Cl3=358.25          
N4-C5-Zr1-C7=250.09           N4-C5-Zr1-C8=221.81           N4-C5-Zr1-C15= 32.71          N4-C5-Zr1-C16= 52.32          
N4-C5-Zr1-C17= 87.06          N4-C5-Zr1-C18=125.18          N4-C5-Zr1-C19=124.44          C6-C5-Zr1-Cl2=288.28          
C6-C5-Zr1-Cl3=113.11          C6-C5-Zr1-N4=114.86           C6-C5-Zr1-C7=  4.94           C6-C5-Zr1-C8=336.66           
C6-C5-Zr1-C15=147.57          C6-C5-Zr1-C16=167.18          C6-C5-Zr1-C17=201.92          C6-C5-Zr1-C18=240.03          
C6-C5-Zr1-C19=239.30          C12-C5-Zr1-Cl2=117.04         C12-C5-Zr1-Cl3=301.86         C12-C5-Zr1-N4=303.61          
C12-C5-Zr1-C7=193.70          C12-C5-Zr1-C8=165.42          C12-C5-Zr1-C15=336.33         C12-C5-Zr1-C16=355.93         
C12-C5-Zr1-C17= 30.67         C12-C5-Zr1-C18= 68.79         C12-C5-Zr1-C19= 68.05         Zr1-C5-N4-C15=248.01          
C6-C5-N4-Zr1=274.62           C6-C5-N4-C15=162.63           C12-C5-N4-Zr1=156.28          C12-C5-N4-C15= 44.29          
C6-C7-Zr1-Cl2=137.40          C6-C7-Zr1-Cl3=243.49          C6-C7-Zr1-N4=315.79           C6-C7-Zr1-C5=353.81           
C6-C7-Zr1-C8=115.10           C6-C7-Zr1-C15=320.78          C6-C7-Zr1-C16=326.50          C6-C7-Zr1-C17= 24.57          
C6-C7-Zr1-C18= 56.87          C6-C7-Zr1-C19= 36.41          C8-C7-Zr1-Cl2= 22.31          C8-C7-Zr1-Cl3=128.39          
C8-C7-Zr1-N4=200.69           C8-C7-Zr1-C5=238.71           C8-C7-Zr1-C15=205.69          C8-C7-Zr1-C16=211.41          
C8-C7-Zr1-C17=269.47          C8-C7-Zr1-C18=301.77          C8-C7-Zr1-C19=281.31          C11-C7-Zr1-Cl2=275.17         
C11-C7-Zr1-Cl3= 21.26         C11-C7-Zr1-N4= 93.56          C11-C7-Zr1-C5=131.58          C11-C7-Zr1-C8=252.86          
C11-C7-Zr1-C15= 98.55         C11-C7-Zr1-C16=104.27         C11-C7-Zr1-C17=162.34         C11-C7-Zr1-C18=194.63         
C11-C7-Zr1-C19=174.18         Zr1-C7-C6-C5=  7.32           C8-C7-C6-C5=117.15            C11-C7-C6-C5=234.44           
C7-C8-Zr1-Cl2=200.05          C7-C8-Zr1-Cl3=282.33          C7-C8-Zr1-N4= 19.72           C7-C8-Zr1-C5= 44.37           
C7-C8-Zr1-C15= 33.86          C7-C8-Zr1-C16= 74.93          C7-C8-Zr1-C17=127.15          C7-C8-Zr1-C18=128.45          
C7-C8-Zr1-C19=100.34          C9-C8-Zr1-Cl2=310.46          C9-C8-Zr1-Cl3= 32.74          C9-C8-Zr1-N4=130.13           
C9-C8-Zr1-C5=154.78           C9-C8-Zr1-C7=110.41           C9-C8-Zr1-C15=144.27          C9-C8-Zr1-C16=185.33          
C9-C8-Zr1-C17=237.55          C9-C8-Zr1-C18=238.86          C9-C8-Zr1-C19=210.75          Zr1-C8-C7-C6=227.64           
Zr1-C8-C7-C11=103.62          C9-C8-C7-Zr1=286.08           C9-C8-C7-C6=153.72            C9-C8-C7-C11= 29.70           
C10-C9-C8-Zr1=301.71          C10-C9-C8-C7=352.85           C11-C10-C9-C8=342.03          

 CMA Distance (Angstroems)
 ---------------------------
R(CMA):  1.6301
           -------------------------------------------------
          |                Final Singlepoint                |
           -------------------------------------------------

          ...................................................
          :                      SETUP                      :
          :.................................................:
          :  # basis functions                 117          :
          :  # atomic orbitals                 114          :
          :  # shells                           60          :
          :  # electrons                       106          :
          :  max. iterations                   250          :
          :  Hamiltonian                  GFN2-xTB          :
          :  restarted?                      false          :
          :  GBSA solvation                  false          :
          :  PC potential                    false          :
          :  electronic temp.          300.0000000     K    :
          :  accuracy                    1.0000000          :
          :  -> integral cutoff          0.2500000E+02      :
          :  -> integral neglect         0.1000000E-07      :
          :  -> SCF convergence          0.1000000E-05 Eh   :
          :  -> wf. convergence          0.1000000E-03 e    :
          :  Broyden damping             0.4000000          :
          :  net charge                          0          :
          :  unpaired electrons                  0          :
          ...................................................

 iter      E             dE          RMSdq      gap      omega  full diag
   1    -55.8560206 -0.558560E+02  0.107E+00    0.23       0.0  T
   2    -55.3394187  0.516602E+00  0.273E+00    0.10       1.0  T
   3    -55.8250008 -0.485582E+00  0.921E-01    0.29       1.0  T
   4    -55.8185914  0.640939E-02  0.126E+00    0.18       1.0  T
   5    -55.8840715 -0.654801E-01  0.447E-01    0.14       1.0  T
   6    -55.8886421 -0.457064E-02  0.299E-01    0.16       1.0  T
   7    -55.8902978 -0.165573E-02  0.220E-01    0.14       1.0  T
   8    -55.8891086  0.118923E-02  0.250E-01    0.12       1.0  T
   9    -55.8902426 -0.113395E-02  0.159E-01    0.15       1.0  T
  10    -55.8917327 -0.149016E-02  0.790E-02    0.13       1.0  T
  11    -55.8920437 -0.310969E-03  0.382E-02    0.13       1.0  T
  12    -55.8920746 -0.308939E-04  0.248E-02    0.13       1.0  T
  13    -55.8920837 -0.912230E-05  0.204E-02    0.13       1.0  T
  14    -55.8920937 -0.995890E-05  0.128E-02    0.13       1.3  T
  15    -55.8920986 -0.496647E-05  0.759E-03    0.13       2.2  T
  16    -55.8920991 -0.442748E-06  0.586E-03    0.13       2.8  T
  17    -55.8920985  0.607766E-06  0.614E-03    0.13       2.7  T
  18    -55.8920999 -0.139426E-05  0.327E-03    0.13       5.1  T
  19    -55.8921001 -0.210827E-06  0.218E-03    0.13       7.6  T
  20    -55.8921001 -0.254637E-07  0.169E-03    0.13       9.8  T
  21    -55.8921002 -0.688873E-07  0.116E-03    0.13      14.4  T
  22    -55.8921002 -0.394061E-07  0.886E-04    0.13      18.8  T
  23    -55.8921002 -0.131669E-07  0.538E-04    0.13      31.0  T

   *** convergence criteria satisfied after 23 iterations ***

         #    Occupation            Energy/Eh            Energy/eV
      -------------------------------------------------------------
         1        2.0000           -1.1056869             -30.0873
       ...           ...                  ...                  ...
        47        2.0000           -0.4007177             -10.9041
        48        2.0000           -0.3948394             -10.7441
        49        2.0000           -0.3848874             -10.4733
        50        2.0000           -0.3826087             -10.4113
        51        2.0000           -0.3756883             -10.2230
        52        2.0000           -0.3673063              -9.9949
        53        1.8556           -0.3584328              -9.7535 (HOMO)
        54        0.1444           -0.3535815              -9.6214 (LUMO)
        55        0.0000           -0.3457748              -9.4090
        56                         -0.3321452              -9.0381
        57                         -0.3165829              -8.6147
        58                         -0.3037653              -8.2659
       ...                                ...                  ...
       114                          2.5038745              68.1339
      -------------------------------------------------------------
                  HL-Gap            0.0048514 Eh            0.1320 eV
             Fermi-level           -0.3560073 Eh           -9.6875 eV

 SCC (total)                   0 d,  0 h,  0 min,  0.093 sec
 SCC setup                      ...        0 min,  0.000 sec (  0.509%)
 Dispersion                     ...        0 min,  0.001 sec (  0.708%)
 classical contributions        ...        0 min,  0.000 sec (  0.136%)
 integral evaluation            ...        0 min,  0.003 sec (  3.521%)
 iterations                     ...        0 min,  0.074 sec ( 79.936%)
 molecular gradient             ...        0 min,  0.014 sec ( 14.701%)
 printout                       ...        0 min,  0.000 sec (  0.438%)

         :::::::::::::::::::::::::::::::::::::::::::::::::::::
         ::                     SUMMARY                     ::
         :::::::::::::::::::::::::::::::::::::::::::::::::::::
         :: total energy             -55.687911714481 Eh    ::
         :: gradient norm              0.025111091011 Eh/a0 ::
         :: HOMO-LUMO gap              0.132011963805 eV    ::
         ::.................................................::
         :: SCC energy               -55.890060957235 Eh    ::
         :: -> isotropic ES            0.023797969313 Eh    ::
         :: -> anisotropic ES         -0.002634548951 Eh    ::
         :: -> anisotropic XC          0.044955314384 Eh    ::
         :: -> dispersion             -0.059221975776 Eh    ::
         :: repulsion energy           0.184049933045 Eh    ::
         :: add. restraining           0.018099309709 Eh    ::
         :: total charge              -0.000000000000 e     ::
         :::::::::::::::::::::::::::::::::::::::::::::::::::::

           -------------------------------------------------
          |                Property Printout                |
           -------------------------------------------------

    * Orbital Energies and Occupations

         #    Occupation            Energy/Eh            Energy/eV
      -------------------------------------------------------------
         1        2.0000           -1.1056869             -30.0873
       ...           ...                  ...                  ...
        41        2.0000           -0.4266693             -11.6103
        42        2.0000           -0.4251347             -11.5685
        43        2.0000           -0.4246026             -11.5540
        44        2.0000           -0.4201305             -11.4323
        45        2.0000           -0.4154209             -11.3042
        46        2.0000           -0.4117253             -11.2036
        47        2.0000           -0.4007177             -10.9041
        48        2.0000           -0.3948394             -10.7441
        49        2.0000           -0.3848874             -10.4733
        50        2.0000           -0.3826087             -10.4113
        51        2.0000           -0.3756883             -10.2230
        52        2.0000           -0.3673063              -9.9949
        53        1.8556           -0.3584328              -9.7535 (HOMO)
        54        0.1444           -0.3535815              -9.6214 (LUMO)
        55        0.0000           -0.3457748              -9.4090
        56                         -0.3321452              -9.0381
        57                         -0.3165829              -8.6147
        58                         -0.3037653              -8.2659
        59                         -0.3003760              -8.1736
        60                         -0.2987405              -8.1291
        61                         -0.2938178              -7.9952
        62                         -0.2890767              -7.8662
        63                         -0.2803305              -7.6282
        64                         -0.2782681              -7.5721
       ...                                ...                  ...
       114                          2.5038745              68.1339
      -------------------------------------------------------------
                  HL-Gap            0.0048514 Eh            0.1320 eV
             Fermi-level           -0.3560073 Eh           -9.6875 eV

     #   Z          covCN         q      C6AA      α(0)
     1  40 Zr       6.340     1.048   136.284    17.542
     2  17 Cl       0.788    -0.505   115.786    16.460
     3  17 Cl       1.144    -0.281   108.164    15.911
     4   7 N        2.391    -0.344    29.021     7.999
     5   6 C        2.795    -0.032    28.772     8.787
     6   6 C        1.675    -0.060    33.178     9.338
     7   6 C        3.587    -0.056    22.301     6.848
     8   6 C        2.335    -0.034    30.140     8.924
     9   6 C        2.135    -0.025    31.445     9.064
    10   6 C        2.203    -0.014    30.814     8.983
    11   6 C        2.127    -0.066    32.571     9.224
    12   6 C        1.647    -0.083    34.013     9.469
    13   6 C        1.639    -0.059    33.371     9.384
    14   6 C        1.738    -0.044    32.517     9.225
    15   6 C        2.745    -0.008    28.205     8.696
    16   6 C        2.449    -0.082    30.448     9.004
    17   6 C        3.862    -0.035    21.157     6.541
    18   6 C        3.672     0.010    20.645     6.512
    19   6 C        2.220    -0.146    34.378     9.492
    20   6 C        2.734    -0.006    28.139     8.685
    21   6 C        2.455    -0.040    29.337     8.839
    22   1 H        0.111     0.103     4.352     3.812
    23   1 H        0.137     0.088     4.698     3.960
    24   1 H        0.091    -0.008     7.934     5.148
    25   1 H        0.113     0.008     7.254     4.922
    26   1 H        0.127     0.014     6.983     4.828
    27   1 H        0.065    -0.019     8.496     5.328
    28   1 H        0.204     0.062     5.324     4.209
    29   1 H        0.169     0.017     6.847     4.778
    30   1 H        0.205     0.048     5.723     4.364
    31   1 H        0.153     0.072     5.104     4.126
    32   1 H        0.667     0.246     0.985     1.588
    33   1 H        0.119     0.079     4.918     4.052
    34   1 H        0.179     0.140     3.591     3.459
    35   1 H        0.067    -0.002     7.709     5.076
    36   1 H        0.112     0.017     6.903     4.801

 Mol. C6AA /au·bohr⁶  :      27278.451272
 Mol. C8AA /au·bohr⁸  :     861492.427812
 Mol. α(0) /au        :        269.378335


Wiberg/Mayer (AO) data.
largest (>0.10) Wiberg bond orders for each atom

 ---------------------------------------------------------------------------
     #   Z sym  total        # sym  WBO       # sym  WBO       # sym  WBO
 ---------------------------------------------------------------------------
     1  40 Zr   4.281 --     3 Cl   0.676     4 N    0.629     2 Cl   0.623
                            17 C    0.373     7 C    0.317    18 C    0.235
                             8 C    0.151     5 C    0.135    10 C    0.129
                            16 C    0.118    11 C    0.118    15 C    0.113
                            19 C    0.106
     2  17 Cl   0.890 --     1 Zr   0.623
     3  17 Cl   1.249 --     1 Zr   0.676    32 H    0.257    16 C    0.117
     4   7 N    3.116 --    15 C    1.046     5 C    0.956     1 Zr   0.629
     5   6 C    3.749 --     4 N    0.956    12 C    0.924     6 C    0.814
                            34 H    0.368    19 C    0.190     1 Zr   0.135
     6   6 C    3.664 --    22 H    0.878    23 H    0.869     7 C    0.847
                             5 C    0.814
     7   6 C    3.858 --     8 C    1.204    11 C    1.063     6 C    0.847
                             1 Zr   0.317
     8   6 C    3.839 --     9 C    1.301     7 C    1.204    24 H    0.862
                             1 Zr   0.151    11 C    0.145
     9   6 C    3.867 --    10 C    1.362     8 C    1.301    25 H    0.880
    10   6 C    3.908 --     9 C    1.362    11 C    1.307    26 H    0.886
                             1 Zr   0.129
    11   6 C    3.620 --    10 C    1.307     7 C    1.063    27 H    0.813
                             8 C    0.145     1 Zr   0.118
    12   6 C    3.537 --    13 C    1.356     5 C    0.924    28 H    0.868
    13   6 C    3.550 --    12 C    1.356    14 C    1.057    29 H    0.895
    14   6 C    3.662 --    15 C    1.380    13 C    1.057    30 H    0.880
    15   6 C    3.742 --    14 C    1.380     4 N    1.046    16 C    0.907
                             1 Zr   0.113
    16   6 C    3.564 --    15 C    0.907    31 H    0.826    17 C    0.659
                            32 H    0.595     1 Zr   0.118     3 Cl   0.117
    17   6 C    3.743 --    21 C    1.010    18 C    0.814    16 C    0.659
                            20 C    0.474     1 Zr   0.373
    18   6 C    3.771 --    19 C    1.006    17 C    0.814    33 H    0.784
                            21 C    0.471     1 Zr   0.235    20 C    0.198
    19   6 C    3.285 --    20 C    1.073    18 C    1.006    34 H    0.445
                             5 C    0.190     1 Zr   0.106
    20   6 C    3.610 --    19 C    1.073    21 C    0.851    35 H    0.772
                            17 C    0.474    18 C    0.198
    21   6 C    3.524 --    17 C    1.010    20 C    0.851    36 H    0.766
                            18 C    0.471
    22   1 H    0.977 --     6 C    0.878
    23   1 H    0.990 --     6 C    0.869
    24   1 H    0.982 --     8 C    0.862
    25   1 H    0.991 --     9 C    0.880
    26   1 H    0.985 --    10 C    0.886
    27   1 H    0.986 --    11 C    0.813
    28   1 H    0.976 --    12 C    0.868
    29   1 H    0.982 --    13 C    0.895
    30   1 H    0.991 --    14 C    0.880
    31   1 H    0.986 --    16 C    0.826
    32   1 H    0.930 --    16 C    0.595     3 Cl   0.257
    33   1 H    0.966 --    18 C    0.784
    34   1 H    0.972 --    19 C    0.445     5 C    0.368
    35   1 H    0.990 --    20 C    0.772
    36   1 H    0.982 --    21 C    0.766
 ---------------------------------------------------------------------------

Topologies differ in total number of bonds
Writing topology from bond orders to xtbtopo.mol

molecular dipole:
                 x           y           z       tot (Debye)
 q only:       -0.629      -0.965       1.131
   full:       -0.869      -1.202       0.542       4.012
molecular quadrupole (traceless):
                xx          xy          yy          xz          yz          zz
 q only:       10.183      -7.001       3.379      -4.826       3.582     -13.561
  q+dip:        4.022      -1.328      -2.590      -5.789      -0.891      -1.432
   full:        4.572       0.220      -1.636      -4.173      -0.906      -2.936

           -------------------------------------------------
          |                Geometry Summary                 |
           -------------------------------------------------

      molecular mass/u    :      395.4378415
   center of mass at/Å    :       -0.2838541      -0.0403713       0.4204377
  moments of inertia/u·Å² :        0.1535765E+04   0.1936871E+04   0.2431645E+04
rotational constants/cm⁻¹ :        0.1097670E-01   0.8703541E-02   0.6932603E-02

 * 6 selected distances

     #   Z          #   Z                                           value/Å
     1  40 Zr       2  17 Cl                                      2.2538493
     1  40 Zr       3  17 Cl                                      2.3101890
     1  40 Zr       4   7 N                                       1.9916246 (min)
     1  40 Zr       7   6 C                                       2.3874432
     1  40 Zr      17   6 C                                       2.0363382
     1  40 Zr      18   6 C                                       2.4257744 (max)

 * 3 distinct bonds (by element types)

   Z      Z             #   av. dist./Å        max./Å        min./Å
   6 C   40 Zr          3     2.2831853     2.4257744     2.0363382
   7 N   40 Zr          1     1.9916246     1.9916246     1.9916246
  17 Cl  40 Zr          2     2.2820192     2.3101890     2.2538493


optimized geometry written to: xtbopt.xyz


           -------------------------------------------------
          | TOTAL ENERGY              -55.687911714481 Eh   |
          | GRADIENT NORM               0.025111091011 Eh/α |
          | HOMO-LUMO GAP               0.132011963805 eV   |
           -------------------------------------------------

------------------------------------------------------------------------
 * finished run on 2026/03/05 at 12:14:06.148     
------------------------------------------------------------------------
 total:
 * wall-time:     0 d,  0 h,  0 min,  1.120 sec
 *  cpu-time:     0 d,  0 h,  0 min,  4.984 sec
 * ratio c/w:     4.451 speedup
 SCF:
 * wall-time:     0 d,  0 h,  0 min,  0.178 sec
 *  cpu-time:     0 d,  0 h,  0 min,  0.406 sec
 * ratio c/w:     2.284 speedup
 ANC optimizer:
 * wall-time:     0 d,  0 h,  0 min,  0.886 sec
 *  cpu-time:     0 d,  0 h,  0 min,  4.531 sec
 * ratio c/w:     5.113 speedup

