      -----------------------------------------------------------      
     |                   =====================                   |     
     |                           x T B                           |     
     |                   =====================                   |     
     |                         S. Grimme                         |     
     |          Mulliken Center for Theoretical Chemistry        |     
     |                    University of Bonn                     |     
      -----------------------------------------------------------      

   * xtb version 6.7.1 (edcfbbe) compiled by 'VssAdministrator@runnervmowedg' on 2025-09-04

   xtb is free software: you can redistribute it and/or modify it under
   the terms of the GNU Lesser General Public License as published by
   the Free Software Foundation, either version 3 of the License, or
   (at your option) any later version.
   
   xtb is distributed in the hope that it will be useful,
   but WITHOUT ANY WARRANTY; without even the implied warranty of
   MERCHANTABILITY or FITNESS FOR A PARTICULAR PURPOSE.  See the
   GNU Lesser General Public License for more details.
   
   Cite this work as:
   * C. Bannwarth, E. Caldeweyher, S. Ehlert, A. Hansen, P. Pracht,
     J. Seibert, S. Spicher, S. Grimme, WIREs Comput. Mol. Sci., 2020, 11,
     e01493. DOI: 10.1002/wcms.1493
   
   for GFN2-xTB:
   * C. Bannwarth, S. Ehlert and S. Grimme., J. Chem. Theory Comput., 2019,
     15, 1652-1671. DOI: 10.1021/acs.jctc.8b01176
   for GFN1-xTB:
   * S. Grimme, C. Bannwarth, P. Shushkov, J. Chem. Theory Comput., 2017,
     13, 1989-2009. DOI: 10.1021/acs.jctc.7b00118
   for GFN0-xTB:
   * P. Pracht, E. Caldeweyher, S. Ehlert, S. Grimme, ChemRxiv, 2019, preprint.
     DOI: 10.26434/chemrxiv.8326202.v1
   for GFN-FF:
   * S. Spicher and S. Grimme, Angew. Chem. Int. Ed., 2020, 59, 15665-15673.
     DOI: 10.1002/anie.202004239
   
   for ALPB and GBSA implicit solvation:
   * S. Ehlert, M. Stahn, S. Spicher, S. Grimme, J. Chem. Theory Comput.,
     2021, 17, 4250-4261. DOI: 10.1021/acs.jctc.1c00471
   
   for ddCOSMO and CPCM-X implicit solvation:
   * M. Stahn, S. Ehlert, S. Grimme, J. Phys. Chem. A,
     2023, XX, XXXX-XXXX. DOI: 10.1021/acs.jpca.3c04382
   
   for DFT-D4:
   * E. Caldeweyher, C. Bannwarth and S. Grimme, J. Chem. Phys., 2017,
     147, 034112. DOI: 10.1063/1.4993215
   * E. Caldeweyher, S. Ehlert, A. Hansen, H. Neugebauer, S. Spicher,
     C. Bannwarth and S. Grimme, J. Chem. Phys., 2019, 150, 154122.
     DOI: 10.1063/1.5090222
   * E. Caldeweyher, J.-M. Mewes, S. Ehlert and S. Grimme, Phys. Chem. Chem. Phys.
     2020, 22, 8499-8512. DOI: 10.1039/D0CP00502A
   
   for sTDA-xTB:
   * S. Grimme and C. Bannwarth, J. Chem. Phys., 2016, 145, 054103.
     DOI: 10.1063/1.4959605
   
   in the mass-spec context:
   * V. Asgeirsson, C. Bauer and S. Grimme, Chem. Sci., 2017, 8, 4879.
     DOI: 10.1039/c7sc00601b
   * J. Koopman and S. Grimme, ACS Omega 2019, 4, 12, 15120-15133.
     DOI: 10.1021/acsomega.9b02011
   
   for metadynamics refer to:
   * S. Grimme, J. Chem. Theory Comput., 2019, 155, 2847-2862
     DOI: 10.1021/acs.jctc.9b00143
   
   for SPH calculations refer to:
   * S. Spicher and S. Grimme, J. Chem. Theory Comput., 2021, 17, 1701-1714
     DOI: 10.1021/acs.jctc.0c01306
   
   for ONIOM refer to:
   * C. Plett, A. Katbashev, S. Ehlert, S. Grimme, M. Bursch,
     Phys. Chem. Chem. Phys., 2023, 25, 17860-17868. DOI: 10.1039/D3CP02178E
   
   for DIPRO refer to:
   * J. Kohn, N. Gildemeister, S. Grimme, D. Fazzi, A. Hansen,
     J. Chem. Phys., 2023, just accepted.
   
   for PTB refer to:
   * S. Grimme, M. Mueller, A. Hansen, J. Chem. Phys., 2023, 158, 124111.
     DOI: 10.1063/5.0137838
   
   with help from (in alphabetical order)
   P. Atkinson, C. Bannwarth, F. Bohle, G. Brandenburg, E. Caldeweyher
   M. Checinski, S. Dohm, S. Ehlert, S. Ehrlich, I. Gerasimov, C. Hölzer
   A. Katbashev, J. Kohn, J. Koopman, C. Lavigne, S. Lehtola, F. März, M. Müller,
   F. Musil, H. Neugebauer, J. Pisarek, C. Plett, P. Pracht, F. Pultar,
   J. Seibert, P. Shushkov, S. Spicher, M. Stahn, M. Steiner, T. Strunk,
   J. Stückrath, T. Rose, and J. Unsleber
   
 * started run on 2026/03/05 at 12:14:07.108     
   ID    Z sym.   atoms
    1   40 Zr     1
    2   17 Cl     2, 3
    3    7 N      4
    4    6 C      5-21
    5    1 H      22-36

           -------------------------------------------------
          |                Calculation Setup                |
           -------------------------------------------------

          program call               : xtb qc_relax_4.xyz --opt --chrg 0 --uhf 0 --cycles 5 --input xcontrol
          coordinate file            : qc_relax_4.xyz
          omp threads                :                    12


molecular fragmentation (1/2 indicates fragments):
111111111112222222222222222222222222
# atoms in fragment 1/2:    11    25
 fragment masses (1/2) :      260.21      135.23
CMA distance (Bohr)    :   5.791
constraining FC (au)   :  1.0000

           -------------------------------------------------
          |                 G F N 2 - x T B                 |
           -------------------------------------------------

        Reference                      10.1021/acs.jctc.8b01176
      * Hamiltonian:
        H0-scaling (s, p, d)           1.850000    2.230000    2.230000
        zeta-weighting                 0.500000
      * Dispersion:
        s8                             2.700000
        a1                             0.520000
        a2                             5.000000
        s9                             5.000000
      * Repulsion:
        kExp                           1.500000    1.000000
        rExp                           1.000000
      * Coulomb:
        alpha                          2.000000
        third order                    shell-resolved
        anisotropic                    true
        a3                             3.000000
        a5                             4.000000
        cn-shift                       1.200000
        cn-exp                         4.000000
        max-rad                        5.000000

q/qsh data taken from xtbrestart
CAMM data taken from xtbrestart

          ...................................................
          :                      SETUP                      :
          :.................................................:
          :  # basis functions                 117          :
          :  # atomic orbitals                 114          :
          :  # shells                           60          :
          :  # electrons                       106          :
          :  max. iterations                   250          :
          :  Hamiltonian                  GFN2-xTB          :
          :  restarted?                       true          :
          :  GBSA solvation                  false          :
          :  PC potential                    false          :
          :  electronic temp.          300.0000000     K    :
          :  accuracy                    1.0000000          :
          :  -> integral cutoff          0.2500000E+02      :
          :  -> integral neglect         0.1000000E-07      :
          :  -> SCF convergence          0.1000000E-05 Eh   :
          :  -> wf. convergence          0.1000000E-03 e    :
          :  Broyden damping             0.4000000          :
          :  net charge                          0          :
          :  unpaired electrons                  0          :
          ...................................................

 iter      E             dE          RMSdq      gap      omega  full diag
   1    -55.3659086 -0.553659E+02  0.526E-01    0.10       0.0  T
   2    -54.9126959  0.453213E+00  0.216E+00    0.40       1.0  T
   3    -55.3677686 -0.455073E+00  0.445E-01    0.05       1.0  T
   4    -55.3585777  0.919091E-02  0.551E-01    0.07       1.0  T
   5    -55.3620941 -0.351647E-02  0.481E-01    0.09       1.0  T
   6    -55.3734652 -0.113710E-01  0.258E-01    0.06       1.0  T
   7    -55.3754728 -0.200764E-02  0.200E-01    0.07       1.0  T
   8    -55.3773410 -0.186817E-02  0.966E-02    0.05       1.0  T
   9    -55.3779638 -0.622831E-03  0.662E-02    0.06       1.0  T
  10    -55.3781370 -0.173179E-03  0.361E-02    0.06       1.0  T
  11    -55.3781564 -0.194308E-04  0.292E-02    0.06       1.0  T
  12    -55.3781897 -0.332520E-04  0.134E-02    0.06       1.2  T
  13    -55.3781890  0.717515E-06  0.117E-02    0.06       1.4  T
  14    -55.3781866  0.238813E-05  0.119E-02    0.06       1.4  T
  15    -55.3781913 -0.473881E-05  0.759E-03    0.06       2.2  T
  16    -55.3781952 -0.384522E-05  0.449E-03    0.06       3.7  T
  17    -55.3781958 -0.628200E-06  0.332E-03    0.06       5.0  T
  18    -55.3781955  0.314812E-06  0.342E-03    0.06       4.9  T
  19    -55.3781962 -0.760002E-06  0.145E-03    0.06      11.5  T
  20    -55.3781963 -0.338808E-07  0.112E-03    0.06      14.9  T
  21    -55.3781961  0.115686E-06  0.152E-03    0.06      10.9  T
  22    -55.3781963 -0.172593E-06  0.609E-04    0.06      27.4  T
  23    -55.3781963  0.700766E-08  0.569E-04    0.06      29.3  T

   *** convergence criteria satisfied after 23 iterations ***

         #    Occupation            Energy/Eh            Energy/eV
      -------------------------------------------------------------
         1        2.0000           -1.1055074             -30.0824
       ...           ...                  ...                  ...
        47        2.0000           -0.4028979             -10.9634
        48        2.0000           -0.3976155             -10.8197
        49        2.0000           -0.3928424             -10.6898
        50        2.0000           -0.3917625             -10.6604
        51        2.0000           -0.3800583             -10.3419
        52        2.0000           -0.3727234             -10.1423
        53        1.5343           -0.3599855              -9.7957 (HOMO)
        54        0.4653           -0.3577190              -9.7340 (LUMO)
        55        0.0004           -0.3507380              -9.5441
        56                         -0.3382525              -9.2043
        57                         -0.3323134              -9.0427
        58                         -0.3224489              -8.7743
       ...                                ...                  ...
       114                          2.8581536              77.7743
      -------------------------------------------------------------
                  HL-Gap            0.0022664 Eh            0.0617 eV
             Fermi-level           -0.3588528 Eh           -9.7649 eV

 SCC (total)                   0 d,  0 h,  0 min,  0.151 sec
 SCC setup                      ...        0 min,  0.001 sec (  0.413%)
 Dispersion                     ...        0 min,  0.001 sec (  0.521%)
 classical contributions        ...        0 min,  0.000 sec (  0.130%)
 integral evaluation            ...        0 min,  0.009 sec (  5.920%)
 iterations                     ...        0 min,  0.122 sec ( 81.008%)
 molecular gradient             ...        0 min,  0.017 sec ( 11.550%)
 printout                       ...        0 min,  0.001 sec (  0.432%)

         :::::::::::::::::::::::::::::::::::::::::::::::::::::
         ::                     SUMMARY                     ::
         :::::::::::::::::::::::::::::::::::::::::::::::::::::
         :: total energy             -55.199611390974 Eh    ::
         :: gradient norm              0.177784295279 Eh/a0 ::
         :: HOMO-LUMO gap              0.061672228024 eV    ::
         ::.................................................::
         :: SCC energy               -55.376116615749 Eh    ::
         :: -> isotropic ES           -0.021130079504 Eh    ::
         :: -> anisotropic ES         -0.011425696961 Eh    ::
         :: -> anisotropic XC          0.035407114203 Eh    ::
         :: -> dispersion             -0.061103575670 Eh    ::
         :: repulsion energy           0.176505224776 Eh    ::
         :: add. restraining           0.000000000000 Eh    ::
         :: total charge              -0.000000000059 e     ::
         :::::::::::::::::::::::::::::::::::::::::::::::::::::

      ----------------------------------------------------------- 
     |                   =====================                   |
     |                        A N C O P T                        |
     |                   =====================                   |
     |               Approximate Normal Coordinate               |
     |                Rational Function Optimizer                |
      ----------------------------------------------------------- 
      ----------------------------------------------------------- 
     |                   =====================                   |
     |                        A N C O P T                        |
     |                   =====================                   |
     |               Approximate Normal Coordinate               |
     |                Rational Function Optimizer                |
      ----------------------------------------------------------- 

          ...................................................
          :                      SETUP                      :
          :.................................................:
          :   optimization level            normal          :
          :   max. optcycles                     5          :
          :   ANC micro-cycles                   5          :
          :   degrees of freedom               102          :
          :.................................................:
          :   RF solver                   davidson          :
          :   write xtbopt.log                true          :
          :   linear?                        false          :
          :   energy convergence         0.5000000E-05 Eh   :
          :   grad. convergence          0.1000000E-02 Eh/α :
          :   maxmium RF displ.          1.0000000          :
          :   Hlow (freq-cutoff)         0.1000000E-01      :
          :   Hmax (freq-cutoff)         5.0000000          :
          :   S6 in model hess.         20.0000000          :
          ...................................................

generating ANC from exact Hessian ...
Using Lindh-Hessian (1995)
 Shifting diagonal of input Hessian by    1.3071129919814056E-002
 Lowest  eigenvalues of input Hessian
    0.010000    0.010870    0.012735    0.000000    0.000000    0.012920
    0.000000    0.000000    0.000000    0.000000    0.013109    0.013224
    0.013292    0.013376    0.013517    0.013687    0.013780    0.013820
 Highest eigenvalues
    1.598036    1.772039    1.788410    1.934130    2.324774    2.477353


........................................................................
.............................. CYCLE    1 ..............................
........................................................................

 iter      E             dE          RMSdq      gap      omega  full diag
   1    -55.3781963 -0.553782E+02  0.222E-04    0.06       0.0  T
   2    -55.3781963  0.854494E-08  0.376E-04    0.06      44.3  T
   3    -55.3781963  0.237250E-07  0.615E-04    0.06      27.1  T
     SCC iter.                  ...        0 min,  0.014 sec
     gradient                   ...        0 min,  0.014 sec
 * total energy  :   -55.1996114 Eh     change        0.8621278E-08 Eh
   gradient norm :     0.1777841 Eh/α   predicted     0.0000000E+00 (-100.00%)
   displ. norm   :     0.1853128 α      lambda       -0.2084528E-01
   maximum displ.:     0.0619002 α      in ANC's #46, #101, #98, ...

........................................................................
.............................. CYCLE    2 ..............................
........................................................................

 iter      E             dE          RMSdq      gap      omega  full diag
   1    -55.3283001 -0.553283E+02  0.466E-01    0.03       0.0  T
   2    -54.9354408  0.392859E+00  0.206E+00    0.32       1.0  T
   3    -55.3082787 -0.372838E+00  0.640E-01    0.13       1.0  T
   4    -55.3371721 -0.288934E-01  0.294E-01    0.05       1.0  T
   5    -55.3388319 -0.165979E-02  0.289E-01    0.04       1.0  T
   6    -55.3330196  0.581229E-02  0.334E-01    0.05       1.0  T
   7    -55.3420337 -0.901415E-02  0.160E-01    0.06       1.0  T
   8    -55.3420138  0.199276E-04  0.127E-01    0.06       1.0  T
   9    -55.3431125 -0.109874E-02  0.824E-02    0.06       1.0  T
  10    -55.3434534 -0.340824E-03  0.375E-02    0.05       1.0  T
  11    -55.3434784 -0.250659E-04  0.306E-02    0.05       1.0  T
  12    -55.3434847 -0.625255E-05  0.255E-02    0.05       1.0  T
  13    -55.3435321 -0.474388E-04  0.978E-03    0.05       1.7  T
  14    -55.3435344 -0.231252E-05  0.685E-03    0.05       2.4  T
  15    -55.3435366 -0.219934E-05  0.442E-03    0.05       3.8  T
  16    -55.3435374 -0.783918E-06  0.263E-03    0.05       6.3  T
  17    -55.3435377 -0.340020E-06  0.152E-03    0.05      11.0  T
  18    -55.3435377  0.792992E-07  0.168E-03    0.05       9.9  T
  19    -55.3435378 -0.119866E-06  0.109E-03    0.05      15.3  T
  20    -55.3435378 -0.334622E-07  0.749E-04    0.05      22.3  T
  21    -55.3435377  0.103020E-06  0.116E-03    0.05      14.3  T
  22    -55.3435378 -0.112108E-06  0.487E-04    0.05      34.2  T
     SCC iter.                  ...        0 min,  0.088 sec
     gradient                   ...        0 min,  0.015 sec
 * total energy  :   -55.1772445 Eh     change        0.2236689E-01 Eh
   gradient norm :     0.0333586 Eh/α   predicted    -0.1078175E-01 (-148.20%)
   displ. norm   :     0.2442177 α      lambda       -0.2777717E-02
   maximum displ.:     0.1006106 α      in ANC's #3, #24, #1, ...

........................................................................
.............................. CYCLE    3 ..............................
........................................................................

 iter      E             dE          RMSdq      gap      omega  full diag
   1    -55.3083745 -0.553084E+02  0.285E-01    0.04       0.0  T
   2    -55.1287461  0.179628E+00  0.138E+00    0.23       1.0  T
   3    -55.3089455 -0.180199E+00  0.236E-01    0.07       1.0  T
   4    -55.3062280  0.271750E-02  0.270E-01    0.04       1.0  T
   5    -55.3077159 -0.148791E-02  0.273E-01    0.05       1.0  T
   6    -55.3098339 -0.211796E-02  0.183E-01    0.06       1.0  T
   7    -55.3114425 -0.160857E-02  0.119E-01    0.06       1.0  T
   8    -55.3123301 -0.887634E-03  0.581E-02    0.05       1.0  T
   9    -55.3125670 -0.236917E-03  0.298E-02    0.05       1.0  T
  10    -55.3125297  0.372713E-04  0.301E-02    0.05       1.0  T
  11    -55.3126033 -0.735658E-04  0.120E-02    0.05       1.4  T
  12    -55.3126047 -0.141493E-05  0.945E-03    0.05       1.8  T
  13    -55.3126028  0.191136E-05  0.808E-03    0.05       2.1  T
  14    -55.3126074 -0.462096E-05  0.520E-03    0.05       3.2  T
  15    -55.3126090 -0.156424E-05  0.315E-03    0.05       5.3  T
  16    -55.3126095 -0.482209E-06  0.160E-03    0.05      10.4  T
  17    -55.3126095  0.554884E-09  0.141E-03    0.05      11.8  T
  18    -55.3126095 -0.581843E-07  0.110E-03    0.05      15.2  T
  19    -55.3126096 -0.239529E-07  0.821E-04    0.05      20.3  T
  20    -55.3126095  0.125620E-07  0.788E-04    0.05      21.1  T
     SCC iter.                  ...        0 min,  0.069 sec
     gradient                   ...        0 min,  0.012 sec
 * total energy  :   -55.1477834 Eh     change        0.2946107E-01 Eh
   gradient norm :     0.0158555 Eh/α   predicted    -0.1472966E-02 (-105.00%)
   displ. norm   :     0.5163297 α      lambda       -0.3392561E-02
   maximum displ.:     0.2139559 α      in ANC's #3, #24, #35, ...

........................................................................
.............................. CYCLE    4 ..............................
........................................................................

 iter      E             dE          RMSdq      gap      omega  full diag
   1    -55.2444211 -0.552444E+02  0.529E-01    0.04       0.0  T
   2    -54.9063933  0.338028E+00  0.190E+00    0.22       1.0  T
   3    -55.2409818 -0.334588E+00  0.485E-01    0.07       1.0  T
   4    -55.2245869  0.163948E-01  0.604E-01    0.05       1.0  T
   5    -55.1968122  0.277748E-01  0.951E-01    0.07       1.0  T
   6    -55.2477825 -0.509703E-01  0.303E-01    0.05       1.0  T
   7    -55.2511926 -0.341009E-02  0.249E-01    0.05       1.0  T
   8    -55.2541634 -0.297085E-02  0.144E-01    0.05       1.0  T
   9    -55.2556441 -0.148065E-02  0.698E-02    0.04       1.0  T
  10    -55.2556281  0.159448E-04  0.621E-02    0.04       1.0  T
  11    -55.2558429 -0.214779E-03  0.364E-02    0.04       1.0  T
  12    -55.2558927 -0.497670E-04  0.215E-02    0.04       1.0  T
  13    -55.2558885  0.423308E-05  0.175E-02    0.04       1.0  T
  14    -55.2559098 -0.213486E-04  0.103E-02    0.04       1.6  T
  15    -55.2559126 -0.277491E-05  0.854E-03    0.04       2.0  T
  16    -55.2559153 -0.276701E-05  0.473E-03    0.04       3.5  T
  17    -55.2559162 -0.857327E-06  0.330E-03    0.04       5.1  T
  18    -55.2559166 -0.427880E-06  0.245E-03    0.04       6.8  T
  19    -55.2559169 -0.231654E-06  0.146E-03    0.04      11.4  T
  20    -55.2559169 -0.197420E-07  0.117E-03    0.04      14.2  T
  21    -55.2559168  0.984625E-07  0.158E-03    0.04      10.5  T
  22    -55.2559169 -0.110240E-06  0.999E-04    0.04      16.7  T
  23    -55.2559169  0.115561E-07  0.960E-04    0.04      17.4  T
     SCC iter.                  ...        0 min,  0.077 sec
     gradient                   ...        0 min,  0.015 sec
 * total energy  :   -55.0918250 Eh     change        0.5595838E-01 Eh
   gradient norm :     0.0289682 Eh/α   predicted    -0.2149229E-02 (-103.84%)
   displ. norm   :     0.6921996 α      lambda       -0.3731243E-02
   maximum displ.:     0.2724431 α      in ANC's #3, #35, #18, ...

........................................................................
.............................. CYCLE    5 ..............................
........................................................................

 iter      E             dE          RMSdq      gap      omega  full diag
   1    -55.1752353 -0.551752E+02  0.728E-01    0.02       0.0  T
   2    -55.0209101  0.154325E+00  0.146E+00    0.16       1.0  T
   3    -55.0700233 -0.491132E-01  0.108E+00    0.12       1.0  T
   4    -55.0113476  0.586756E-01  0.155E+00    0.16       1.0  T
   5    -55.1409751 -0.129627E+00  0.743E-01    0.01       1.0  T
   6    -55.1715406 -0.305655E-01  0.414E-01    0.02       1.0  T
   7    -55.1796595 -0.811883E-02  0.272E-01    0.01       1.0  T
   8    -55.1804374 -0.777932E-03  0.240E-01    0.02       1.0  T
   9    -55.1818448 -0.140735E-02  0.200E-01    0.01       1.0  T
  10    -55.1827749 -0.930118E-03  0.141E-01    0.01       1.0  T
  11    -55.1839840 -0.120909E-02  0.606E-02    0.01       1.0  T
  12    -55.1841186 -0.134674E-03  0.469E-02    0.01       1.0  T
  13    -55.1841059  0.127795E-04  0.386E-02    0.01       1.0  T
  14    -55.1841897 -0.837885E-04  0.235E-02    0.01       1.0  T
  15    -55.1842139 -0.242945E-04  0.108E-02    0.01       1.5  T
  16    -55.1842215 -0.754364E-05  0.532E-03    0.01       3.1  T
  17    -55.1842208  0.742113E-06  0.590E-03    0.01       2.8  T
  18    -55.1842194  0.136634E-05  0.617E-03    0.01       2.7  T
  19    -55.1842208 -0.144224E-05  0.483E-03    0.01       3.5  T
  20    -55.1842214 -0.612761E-06  0.400E-03    0.01       4.2  T
  21    -55.1842223 -0.897668E-06  0.173E-03    0.01       9.7  T
  22    -55.1842221  0.247290E-06  0.257E-03    0.01       6.5  T
  23    -55.1842224 -0.336886E-06  0.108E-03    0.01      15.4  T
  24    -55.1842225 -0.403893E-07  0.606E-04    0.01      27.5  T
  25    -55.1842225 -0.825616E-08  0.544E-04    0.01      30.6  T
     SCC iter.                  ...        0 min,  0.110 sec
     gradient                   ...        0 min,  0.015 sec
 * total energy  :   -55.0204423 Eh     change        0.7138272E-01 Eh
   gradient norm :     0.0392820 Eh/α   predicted    -0.2759518E-02 (-103.87%)
   displ. norm   :     0.6983322 α      lambda       -0.3894310E-02
   maximum displ.:     0.2355063 α      in ANC's #35, #3, #18, ...

   *** FAILED TO CONVERGE GEOMETRY OPTIMIZATION IN 5 ITERATIONS ***


 ANCopt (total)                0 d,  0 h,  0 min,  0.482 sec
 optimizer setup                ...        0 min,  0.000 sec (  0.093%)
 model hessian                  ...        0 min,  0.016 sec (  3.355%)
 ANC generation                 ...        0 min,  0.002 sec (  0.509%)
 coordinate transformation      ...        0 min,  0.000 sec (  0.034%)
 single point calculation       ...        0 min,  0.455 sec ( 94.327%)
 optimization log               ...        0 min,  0.003 sec (  0.538%)
 hessian update                 ...        0 min,  0.003 sec (  0.562%)
 rational function              ...        0 min,  0.002 sec (  0.353%)

================
 final structure:
================
36
 xtb: 6.7.1 (edcfbbe)
Zr          -0.14871447250961        0.48023915693343       -0.03011412711855
Cl          -0.21473820278374        0.22965872780589       -2.27964601181558
Cl           2.20444814894511        0.39712207173486       -0.21373761417976
N            0.14970618885378        0.44102752311923        1.96432413652632
C           -1.96554055118037        0.21199234534563        1.73495911486242
C           -2.54734293131242        1.96483401854173        2.46687427935775
C           -1.30813526320864        2.01994698410270        0.99783446031262
C           -2.29677810750346        2.13255156649960       -0.27503384267787
C           -1.37090065296604        2.83477380055083       -1.40798676310228
C            0.07117395574652        3.25760167778285       -0.77191068057865
C           -0.26585693671483        3.26083903254235        0.83580050374306
C           -2.24015728108175       -0.59964110455755        3.64687614842448
C           -0.63623854329797       -1.21736690141974        4.74499723493623
C            0.35946469686095       -2.47044407799104        3.44357293203140
C            0.81436147482309       -1.36212054408143        1.78117850699930
C            1.87854181557211       -2.48254922525442        0.48174161088078
C            0.23271891112815       -1.49283116580822       -0.14147152193619
C           -1.39483044476967       -1.39756483867111       -0.62190528154424
C           -2.23912706968344       -1.48275639110265        0.79918542831538
C           -1.12231111384367       -2.73242018556317        0.93392886731868
C           -0.09603943200834       -2.99661313635230       -0.38815842532636
H           -1.19598685000282        2.53796661334610        3.20094511019685
H           -3.80420329500017        1.03379865546004        2.23899021632991
H           -3.48811086100862        0.87588884067323       -0.71855083243047
H           -1.09787469757641        2.05888553895215       -2.99026687966494
H            1.68350555883700        3.20694199554124       -1.44882578977771
H            0.85673243648717        2.00640603570453        1.76517936822185
H           -3.54812943297606        0.27719713433407        4.54948761495799
H           -1.28874251258541       -2.49907700186505        5.95018348536139
H            1.35955336131958       -3.90732140482026        3.92734186991241
H            0.94271335622723       -3.42385943678175        1.57437999245233
H            2.93255946940944       -1.31898714418815        0.06747898425381
H           -1.85729160716262       -1.99597047520366       -2.20887256087304
H           -2.72037226579577       -1.35775290426248        2.32440147426059
H           -0.84015529775337       -3.23553645265326        2.55089186070089
H           -0.47234655148393       -3.76227732839535       -1.97392786933025

 Bond Distances (Angstroems)
 ---------------------------
Zr1-Cl2=2.2644       Zr1-Cl3=2.3618       Zr1-N4=2.0170        Zr1-C5=2.5472        Zr1-C7=2.1844        Zr1-C8=2.7211        
Zr1-C9=2.9893        Zr1-C10=2.8831       Zr1-C11=2.9147       Zr1-C15=2.7573       Zr1-C17=2.0127       Zr1-C18=2.3301       
Zr1-C19=2.9851       Cl2-Zr1=2.2644       Cl3-Zr1=2.3618       N4-Zr1=2.0170        C5-Zr1=2.5472        C6-C7=1.9227         
C7-Zr1=2.1844        C7-C6=1.9227         C7-C8=1.6156         C7-C11=1.6286        C8-Zr1=2.7211        C8-C7=1.6156         
C8-C9=1.6229         C9-Zr1=2.9893        C9-C8=1.6229         C9-C10=1.6319        C10-Zr1=2.8831       C10-C9=1.6319        
C10-C11=1.6427       C11-Zr1=2.9147       C11-C7=1.6286        C11-C10=1.6427       C15-Zr1=2.7573       C17-Zr1=2.0127       
C17-C18=1.6996       C17-C21=1.5589       C18-Zr1=2.3301       C18-C17=1.6996       C18-C19=1.6552       C19-Zr1=2.9851       
C19-C18=1.6552       C19-C20=1.6814       C20-C19=1.6814       C20-C21=1.6944       C21-C17=1.5589       C21-C20=1.6944       
 C  C  Rav=1.6685 sigma=0.0890  Rmin=1.5589  Rmax=1.9227    11
 Zr C  Rav=2.6325 sigma=0.3318  Rmin=2.0127  Rmax=2.9893    10
 Zr N  Rav=2.0170 sigma=0.0000  Rmin=2.0170  Rmax=2.0170     1
 Zr Cl Rav=2.3131 sigma=0.0487  Rmin=2.2644  Rmax=2.3618     2

 selected bond angles (degree)
 --------------------
Cl3-Zr1-Cl2= 87.01             N4-Zr1-Cl2=169.89              N4-Zr1-Cl3= 85.92              C5-Zr1-Cl2=130.99              
C5-Zr1-Cl3=139.54              C5-Zr1-N4= 54.43               C7-Zr1-Cl2=122.01              C7-Zr1-Cl3=126.17              
C7-Zr1-N4= 68.09               C7-Zr1-C5= 50.92               C8-Zr1-Cl2= 87.41              C8-Zr1-Cl3=143.22              
C8-Zr1-N4=102.57               C8-Zr1-C5= 64.10               C8-Zr1-C7= 36.42               C9-Zr1-Cl2= 67.50              
C9-Zr1-Cl3=113.53              C9-Zr1-N4=122.11               C9-Zr1-C5= 96.36               C9-Zr1-C7= 56.27               
C9-Zr1-C8= 32.59               C10-Zr1-Cl2= 81.56             C10-Zr1-Cl3= 86.44             C10-Zr1-N4=105.18              
C10-Zr1-C5=109.52              C10-Zr1-C7= 58.84              C10-Zr1-C8= 56.78              C10-Zr1-C9= 32.20              
C11-Zr1-Cl2=113.55             C11-Zr1-Cl3= 95.55             C11-Zr1-N4= 74.38              C11-Zr1-C5= 82.30              
C11-Zr1-C7= 33.53              C11-Zr1-C8= 54.25              C11-Zr1-C9= 50.88              C11-Zr1-C10= 32.91             
C15-Zr1-Cl2=126.07             C15-Zr1-Cl3= 71.31             C15-Zr1-N4= 44.42              C15-Zr1-C5= 73.95              
C15-Zr1-C7=110.32              C15-Zr1-C8=137.78              C15-Zr1-C9=166.38              C15-Zr1-C10=141.82             
C15-Zr1-C11=117.15             C17-Zr1-Cl2= 80.91             C17-Zr1-Cl3= 76.84             C17-Zr1-N4= 90.44              
C17-Zr1-C5= 94.03              C17-Zr1-C7=144.85              C17-Zr1-C8=137.72              C17-Zr1-C9=145.50              
C17-Zr1-C10=156.30             C17-Zr1-C11=163.59             C17-Zr1-C15= 46.77             C18-Zr1-Cl2= 69.08             
C18-Zr1-Cl3=119.00             C18-Zr1-N4=108.34              C18-Zr1-C5= 73.12              C18-Zr1-C7=113.81              
C18-Zr1-C8= 92.54              C18-Zr1-C9=107.40              C18-Zr1-C10=138.75             C18-Zr1-C11=145.37             
C18-Zr1-C15= 79.35             C18-Zr1-C17= 45.35             C19-Zr1-Cl2=100.53             C19-Zr1-Cl3=134.12             
C19-Zr1-N4= 79.40              C19-Zr1-C5= 40.43              C19-Zr1-C7= 87.77              C19-Zr1-C8= 82.62              
C19-Zr1-C9=111.08              C19-Zr1-C10=139.32             C19-Zr1-C11=121.11             C19-Zr1-C15= 67.83             
C19-Zr1-C17= 60.23             C19-Zr1-C18= 33.50             C6-C7-Zr1=132.96               C8-C7-Zr1= 90.18               
C8-C7-C6=102.10                C11-C7-Zr1= 98.66              C11-C7-C6=120.69               C11-C7-C8=105.08               
C7-C8-Zr1= 53.40               C9-C8-Zr1= 82.83               C9-C8-C7=103.36                C8-C9-Zr1= 64.58               
C10-C9-Zr1= 70.31              C10-C9-C8=110.13               C9-C10-Zr1= 77.48              C11-C10-Zr1= 74.60             
C11-C10-C9=101.58              

 selected dihedral angles (degree)
 ---------------------------------
C6-C7-Zr1-Cl2=127.28          C6-C7-Zr1-Cl3=239.67          C6-C7-Zr1-N4=306.77           C6-C7-Zr1-C5=  8.01           
C6-C7-Zr1-C8=106.82           C6-C7-Zr1-C9=143.55           C6-C7-Zr1-C10=181.81          C6-C7-Zr1-C11=212.10          
C6-C7-Zr1-C15=320.89          C6-C7-Zr1-C17=  2.94          C6-C7-Zr1-C18= 47.91          C6-C7-Zr1-C19= 26.24          
C8-C7-Zr1-Cl2= 20.46          C8-C7-Zr1-Cl3=132.85          C8-C7-Zr1-N4=199.95           C8-C7-Zr1-C5=261.20           
C8-C7-Zr1-C9= 36.74           C8-C7-Zr1-C10= 75.00          C8-C7-Zr1-C11=105.28          C8-C7-Zr1-C15=214.08          
C8-C7-Zr1-C17=256.12          C8-C7-Zr1-C18=301.09          C8-C7-Zr1-C19=279.43          C11-C7-Zr1-Cl2=275.18         
C11-C7-Zr1-Cl3= 27.57         C11-C7-Zr1-N4= 94.67          C11-C7-Zr1-C5=155.91          C11-C7-Zr1-C8=254.72          
C11-C7-Zr1-C9=291.46          C11-C7-Zr1-C10=329.71         C11-C7-Zr1-C15=108.79         C11-C7-Zr1-C17=150.84         
C11-C7-Zr1-C18=195.81         C11-C7-Zr1-C19=174.14         C7-C8-Zr1-Cl2=197.26          C7-C8-Zr1-Cl3=278.77          
C7-C8-Zr1-N4= 18.93           C7-C8-Zr1-C5= 58.51           C7-C8-Zr1-C9=247.45           C7-C8-Zr1-C10=278.87          
C7-C8-Zr1-C11=318.96          C7-C8-Zr1-C15= 51.44          C7-C8-Zr1-C17=123.81          C7-C8-Zr1-C18=128.35          
C7-C8-Zr1-C19= 96.29          C9-C8-Zr1-Cl2=309.81          C9-C8-Zr1-Cl3= 31.32          C9-C8-Zr1-N4=131.48           
C9-C8-Zr1-C5=171.06           C9-C8-Zr1-C7=112.55           C9-C8-Zr1-C10= 31.42          C9-C8-Zr1-C11= 71.51          
C9-C8-Zr1-C15=163.99          C9-C8-Zr1-C17=236.36          C9-C8-Zr1-C18=240.90          C9-C8-Zr1-C19=208.84          
Zr1-C8-C7-C6=225.77           Zr1-C8-C7-C11= 99.02          C9-C8-C7-Zr1=289.64           C9-C8-C7-C6=155.41            
C9-C8-C7-C11= 28.66           Zr1-C9-C8-C7= 49.64           C10-C9-C8-Zr1=304.86          C10-C9-C8-C7=354.50           
C9-C10-Zr1-Cl2= 60.64         C9-C10-Zr1-Cl3=148.14         C9-C10-Zr1-N4=232.93          C9-C10-Zr1-C5=290.03          
C9-C10-Zr1-C7=284.92          C9-C10-Zr1-C8=328.20          C9-C10-Zr1-C11=254.07         C9-C10-Zr1-C15=201.38         
C9-C10-Zr1-C17=103.31         C9-C10-Zr1-C18= 16.42         C9-C10-Zr1-C19=324.27         C11-C10-Zr1-Cl2=166.56        
C11-C10-Zr1-Cl3=254.07        C11-C10-Zr1-N4=338.86         C11-C10-Zr1-C5= 35.95         C11-C10-Zr1-C7= 30.85         
C11-C10-Zr1-C8= 74.13         C11-C10-Zr1-C9=105.93         C11-C10-Zr1-C15=307.31        C11-C10-Zr1-C17=209.24        
C11-C10-Zr1-C18=122.34        C11-C10-Zr1-C19= 70.20        Zr1-C10-C9-C8= 51.92          C11-C10-C9-Zr1=288.85         
C11-C10-C9-C8=340.77          

 CMA Distance (Angstroems)
 ---------------------------
R(CMA):  3.1045
           -------------------------------------------------
          |                Final Singlepoint                |
           -------------------------------------------------

          ...................................................
          :                      SETUP                      :
          :.................................................:
          :  # basis functions                 117          :
          :  # atomic orbitals                 114          :
          :  # shells                           60          :
          :  # electrons                       106          :
          :  max. iterations                   250          :
          :  Hamiltonian                  GFN2-xTB          :
          :  restarted?                      false          :
          :  GBSA solvation                  false          :
          :  PC potential                    false          :
          :  electronic temp.          300.0000000     K    :
          :  accuracy                    1.0000000          :
          :  -> integral cutoff          0.2500000E+02      :
          :  -> integral neglect         0.1000000E-07      :
          :  -> SCF convergence          0.1000000E-05 Eh   :
          :  -> wf. convergence          0.1000000E-03 e    :
          :  Broyden damping             0.4000000          :
          :  net charge                          0          :
          :  unpaired electrons                  0          :
          ...................................................

 iter      E             dE          RMSdq      gap      omega  full diag
   1    -55.1043273 -0.551043E+02  0.970E-01    0.08       0.0  T
   2    -54.6470515  0.457276E+00  0.239E+00    0.48       1.0  T
   3    -54.9530538 -0.306002E+00  0.140E+00    0.17       1.0  T
   4    -55.0414730 -0.884192E-01  0.104E+00    0.11       1.0  T
   5    -55.0610365 -0.195635E-01  0.863E-01    0.09       1.0  T
   6    -55.1173735 -0.563370E-01  0.316E-01    0.04       1.0  T
   7    -55.1172156  0.157902E-03  0.311E-01    0.03       1.0  T
   8    -55.1248254 -0.760976E-02  0.141E-01    0.04       1.0  T
   9    -55.1241770  0.648402E-03  0.140E-01    0.03       1.0  T
  10    -55.1252412 -0.106420E-02  0.930E-02    0.03       1.0  T
  11    -55.1257535 -0.512341E-03  0.480E-02    0.03       1.0  T
  12    -55.1258277 -0.742204E-04  0.301E-02    0.03       1.0  T
  13    -55.1258305 -0.274080E-05  0.282E-02    0.03       1.0  T
  14    -55.1258087  0.217405E-04  0.295E-02    0.03       1.0  T
  15    -55.1258726 -0.638412E-04  0.135E-02    0.03       1.2  T
  16    -55.1258760 -0.337487E-05  0.123E-02    0.03       1.4  T
  17    -55.1258811 -0.515567E-05  0.856E-03    0.03       1.9  T
  18    -55.1258809  0.177649E-06  0.789E-03    0.03       2.1  T
  19    -55.1258842 -0.323227E-05  0.424E-03    0.03       3.9  T
  20    -55.1258843 -0.960796E-07  0.384E-03    0.03       4.3  T
  21    -55.1258820  0.228620E-05  0.663E-03    0.03       2.5  T
  22    -55.1258823 -0.330592E-06  0.585E-03    0.03       2.8  T
  23    -55.1258848 -0.252399E-05  0.174E-03    0.03       9.6  T
  24    -55.1258848  0.401423E-07  0.175E-03    0.03       9.5  T
  25    -55.1258850 -0.161016E-06  0.124E-03    0.03      13.5  T
  26    -55.1258850 -0.223571E-07  0.718E-04    0.03      23.2  T
  27    -55.1258850 -0.316175E-07  0.400E-04    0.03      41.6  T

   *** convergence criteria satisfied after 27 iterations ***

         #    Occupation            Energy/Eh            Energy/eV
      -------------------------------------------------------------
         1        2.0000           -1.1110245             -30.2325
       ...           ...                  ...                  ...
        47        2.0000           -0.4012389             -10.9183
        48        2.0000           -0.3966613             -10.7937
        49        2.0000           -0.3918490             -10.6628
        50        2.0000           -0.3893631             -10.5951
        51        2.0000           -0.3811151             -10.3707
        52        2.0000           -0.3780637             -10.2876
        53        1.2880           -0.3652235              -9.9382 (HOMO)
        54        0.7118           -0.3640967              -9.9076 (LUMO)
        55        0.0002           -0.3557039              -9.6792
        56                         -0.3415588              -9.2943
        57                         -0.3400947              -9.2544
        58                         -0.3357661              -9.1367
       ...                                ...                  ...
       114                          3.0043234              81.7518
      -------------------------------------------------------------
                  HL-Gap            0.0011268 Eh            0.0307 eV
             Fermi-level           -0.3646603 Eh           -9.9229 eV

 SCC (total)                   0 d,  0 h,  0 min,  0.115 sec
 SCC setup                      ...        0 min,  0.001 sec (  0.439%)
 Dispersion                     ...        0 min,  0.001 sec (  0.685%)
 classical contributions        ...        0 min,  0.000 sec (  0.132%)
 integral evaluation            ...        0 min,  0.003 sec (  2.390%)
 iterations                     ...        0 min,  0.097 sec ( 83.785%)
 molecular gradient             ...        0 min,  0.014 sec ( 12.195%)
 printout                       ...        0 min,  0.000 sec (  0.325%)

         :::::::::::::::::::::::::::::::::::::::::::::::::::::
         ::                     SUMMARY                     ::
         :::::::::::::::::::::::::::::::::::::::::::::::::::::
         :: total energy             -54.962549201632 Eh    ::
         :: gradient norm              0.032293791952 Eh/a0 ::
         :: HOMO-LUMO gap              0.030661338776 eV    ::
         ::.................................................::
         :: SCC energy               -55.123712730321 Eh    ::
         :: -> isotropic ES           -0.047079233713 Eh    ::
         :: -> anisotropic ES         -0.010118743493 Eh    ::
         :: -> anisotropic XC          0.029137761353 Eh    ::
         :: -> dispersion             -0.061615079306 Eh    ::
         :: repulsion energy           0.147304555185 Eh    ::
         :: add. restraining           0.013858973504 Eh    ::
         :: total charge              -0.000000000003 e     ::
         :::::::::::::::::::::::::::::::::::::::::::::::::::::

           -------------------------------------------------
          |                Property Printout                |
           -------------------------------------------------

    * Orbital Energies and Occupations

         #    Occupation            Energy/Eh            Energy/eV
      -------------------------------------------------------------
         1        2.0000           -1.1110245             -30.2325
       ...           ...                  ...                  ...
        41        2.0000           -0.4310696             -11.7300
        42        2.0000           -0.4229767             -11.5098
        43        2.0000           -0.4216926             -11.4748
        44        2.0000           -0.4146909             -11.2843
        45        2.0000           -0.4106596             -11.1746
        46        2.0000           -0.4078830             -11.0991
        47        2.0000           -0.4012389             -10.9183
        48        2.0000           -0.3966613             -10.7937
        49        2.0000           -0.3918490             -10.6628
        50        2.0000           -0.3893631             -10.5951
        51        2.0000           -0.3811151             -10.3707
        52        2.0000           -0.3780637             -10.2876
        53        1.2880           -0.3652235              -9.9382 (HOMO)
        54        0.7118           -0.3640967              -9.9076 (LUMO)
        55        0.0002           -0.3557039              -9.6792
        56                         -0.3415588              -9.2943
        57                         -0.3400947              -9.2544
        58                         -0.3357661              -9.1367
        59                         -0.3274302              -8.9098
        60                         -0.3247081              -8.8358
        61                         -0.3228669              -8.7857
        62                         -0.3162739              -8.6062
        63                         -0.3129587              -8.5160
        64                         -0.3091683              -8.4129
       ...                                ...                  ...
       114                          3.0043234              81.7518
      -------------------------------------------------------------
                  HL-Gap            0.0011268 Eh            0.0307 eV
             Fermi-level           -0.3646603 Eh           -9.9229 eV

     #   Z          covCN         q      C6AA      α(0)
     1  40 Zr       7.716     1.026   136.831    17.577
     2  17 Cl       0.857    -0.441   113.568    16.303
     3  17 Cl       0.945    -0.279   108.060    15.903
     4   7 N        1.384    -0.388    28.863     7.692
     5   6 C        2.612    -0.106    30.681     9.059
     6   6 C        1.334    -0.106    39.917    10.659
     7   6 C        3.753    -0.026    21.091     6.549
     8   6 C        2.483    -0.051    29.504     8.870
     9   6 C        2.172    -0.060    32.218     9.180
    10   6 C        2.288    -0.020    30.252     8.924
    11   6 C        2.245    -0.136    33.857     9.427
    12   6 C        0.806    -0.114    38.275    10.297
    13   6 C        0.772    -0.122    38.351    10.290
    14   6 C        0.782    -0.110    38.008    10.248
    15   6 C        2.315    -0.048    30.714     9.002
    16   6 C        1.106    -0.159    41.966    10.939
    17   6 C        3.910    -0.042    21.263     6.554
    18   6 C        3.452    -0.044    23.913     7.391
    19   6 C        2.807    -0.096    30.403     9.034
    20   6 C        2.486    -0.064    29.812     8.916
    21   6 C        2.374    -0.038    29.862     8.896
    22   1 H        0.052     0.177     3.048     3.192
    23   1 H        0.117     0.195     2.783     3.049
    24   1 H        0.003    -0.016     8.343     5.281
    25   1 H        0.010     0.085     4.816     4.013
    26   1 H        0.008     0.030     6.444     4.641
    27   1 H        0.084     0.075     5.038     4.103
    28   1 H        0.002     0.005     7.416     4.979
    29   1 H        0.000    -0.005     7.858     5.126
    30   1 H        0.002     0.020     6.829     4.778
    31   1 H        0.014     0.223     2.468     2.873
    32   1 H        0.236     0.264     1.991     2.571
    33   1 H        0.006     0.076     5.045     4.107
    34   1 H        0.182     0.203     2.661     2.978
    35   1 H        0.042     0.078     4.977     4.079
    36   1 H        0.003     0.017     6.940     4.817

 Mol. C6AA /au·bohr⁶  :      27596.211639
 Mol. C8AA /au·bohr⁸  :     879146.218788
 Mol. α(0) /au        :        272.294607


Wiberg/Mayer (AO) data.
largest (>0.10) Wiberg bond orders for each atom

 ---------------------------------------------------------------------------
     #   Z sym  total        # sym  WBO       # sym  WBO       # sym  WBO
 ---------------------------------------------------------------------------
     1  40 Zr   4.332 --     4 N    0.619     3 Cl   0.575     2 Cl   0.547
                            17 C    0.410     7 C    0.276    18 C    0.273
                             5 C    0.193    10 C    0.171     8 C    0.169
                            15 C    0.161    11 C    0.148     9 C    0.131
                            27 H    0.115
     2  17 Cl   0.991 --     1 Zr   0.547    25 H    0.117
     3  17 Cl   1.233 --     1 Zr   0.575    32 H    0.320
     4   7 N    2.910 --    15 C    0.775     1 Zr   0.619     5 C    0.572
                            27 H    0.303
     5   6 C    3.393 --     6 C    0.626    12 C    0.588    19 C    0.577
                             4 N    0.572     7 C    0.311     1 Zr   0.193
     6   6 C    3.292 --    22 H    0.784     7 C    0.750    23 H    0.700
                             5 C    0.626    19 C    0.109
     7   6 C    3.839 --     8 C    1.098    11 C    0.979     6 C    0.750
                             5 C    0.311     1 Zr   0.276
     8   6 C    3.664 --     9 C    1.226     7 C    1.098    24 H    0.775
                             1 Zr   0.169    11 C    0.108
     9   6 C    3.720 --    10 C    1.343     8 C    1.226    25 H    0.719
                             1 Zr   0.131
    10   6 C    3.783 --     9 C    1.343    11 C    1.171    26 H    0.836
                             1 Zr   0.171
    11   6 C    3.198 --    10 C    1.171     7 C    0.979    27 H    0.387
                             1 Zr   0.148     8 C    0.108
    12   6 C    3.034 --    13 C    0.825    28 H    0.816     5 C    0.588
                            34 H    0.457
    13   6 C    2.730 --    12 C    0.825    29 H    0.816    14 C    0.694
    14   6 C    3.112 --    30 H    0.768    15 C    0.728    13 C    0.694
                            35 H    0.515
    15   6 C    3.445 --     4 N    0.775    14 C    0.728    16 C    0.709
                            17 C    0.497    20 C    0.194     1 Zr   0.161
    16   6 C    2.931 --    15 C    0.709    31 H    0.578    32 H    0.480
                            17 C    0.364    21 C    0.284
    17   6 C    3.661 --    21 C    0.950    18 C    0.696    15 C    0.497
                             1 Zr   0.410    20 C    0.407    16 C    0.364
    18   6 C    3.602 --    19 C    0.896    17 C    0.696    33 H    0.687
                            21 C    0.401     1 Zr   0.273    20 C    0.257
    19   6 C    3.303 --    20 C    0.937    18 C    0.896     5 C    0.577
                            34 H    0.276     6 C    0.109
    20   6 C    3.332 --    19 C    0.937    21 C    0.836    17 C    0.407
                            35 H    0.333    18 C    0.257    15 C    0.194
    21   6 C    3.379 --    17 C    0.950    20 C    0.836    36 H    0.614
                            18 C    0.401    16 C    0.284
    22   1 H    0.906 --     6 C    0.784
    23   1 H    0.936 --     6 C    0.700
    24   1 H    0.975 --     8 C    0.775
    25   1 H    0.958 --     9 C    0.719     2 Cl   0.117
    26   1 H    0.971 --    10 C    0.836
    27   1 H    0.985 --    11 C    0.387     4 N    0.303     1 Zr   0.115
    28   1 H    0.954 --    12 C    0.816
    29   1 H    0.895 --    13 C    0.816
    30   1 H    0.946 --    14 C    0.768
    31   1 H    0.943 --    16 C    0.578
    32   1 H    0.909 --    16 C    0.480     3 Cl   0.320
    33   1 H    0.922 --    18 C    0.687
    34   1 H    0.917 --    12 C    0.457    19 C    0.276
    35   1 H    0.967 --    14 C    0.515    20 C    0.333
    36   1 H    0.837 --    21 C    0.614
 ---------------------------------------------------------------------------

Topologies differ in total number of bonds
Writing topology from bond orders to xtbtopo.mol

molecular dipole:
                 x           y           z       tot (Debye)
 q only:       -0.618      -0.595      -0.131
   full:       -0.824      -0.704      -1.121       3.963
molecular quadrupole (traceless):
                xx          xy          yy          xz          yz          zz
 q only:       14.903      -4.175       7.763      -4.461       4.650     -22.666
  q+dip:       13.581       2.830       4.886      -3.723       2.649     -18.466
   full:       14.458       2.362       5.725      -2.592       1.565     -20.183

           -------------------------------------------------
          |                Geometry Summary                 |
           -------------------------------------------------

      molecular mass/u    :      395.4378415
   center of mass at/Å    :       -0.3116588       0.0808723       0.4416594
  moments of inertia/u·Å² :        0.1462227E+04   0.1863489E+04   0.2344140E+04
rotational constants/cm⁻¹ :        0.1152874E-01   0.9046277E-02   0.7191393E-02

 * 6 selected distances

     #   Z          #   Z                                           value/Å
     1  40 Zr       2  17 Cl                                      2.2644082
     1  40 Zr       3  17 Cl                                      2.3617793 (max)
     1  40 Zr       4   7 N                                       2.0170219
     1  40 Zr       7   6 C                                       2.1844075
     1  40 Zr      17   6 C                                       2.0126846 (min)
     1  40 Zr      18   6 C                                       2.3300581

 * 3 distinct bonds (by element types)

   Z      Z             #   av. dist./Å        max./Å        min./Å
   6 C   40 Zr          3     2.1757167     2.3300581     2.0126846
   7 N   40 Zr          1     2.0170219     2.0170219     2.0170219
  17 Cl  40 Zr          2     2.3130937     2.3617793     2.2644082


optimized geometry written to: xtbopt.xyz


           -------------------------------------------------
          | TOTAL ENERGY              -54.962549201632 Eh   |
          | GRADIENT NORM               0.032293791952 Eh/α |
          | HOMO-LUMO GAP               0.030661338776 eV   |
           -------------------------------------------------

------------------------------------------------------------------------
 * finished run on 2026/03/05 at 12:14:07.900     
------------------------------------------------------------------------
 total:
 * wall-time:     0 d,  0 h,  0 min,  0.792 sec
 *  cpu-time:     0 d,  0 h,  0 min,  5.656 sec
 * ratio c/w:     7.142 speedup
 SCF:
 * wall-time:     0 d,  0 h,  0 min,  0.152 sec
 *  cpu-time:     0 d,  0 h,  0 min,  0.844 sec
 * ratio c/w:     5.569 speedup
 ANC optimizer:
 * wall-time:     0 d,  0 h,  0 min,  0.603 sec
 *  cpu-time:     0 d,  0 h,  0 min,  4.703 sec
 * ratio c/w:     7.801 speedup

