      -----------------------------------------------------------      
     |                   =====================                   |     
     |                           x T B                           |     
     |                   =====================                   |     
     |                         S. Grimme                         |     
     |          Mulliken Center for Theoretical Chemistry        |     
     |                    University of Bonn                     |     
      -----------------------------------------------------------      

   * xtb version 6.7.1 (edcfbbe) compiled by 'VssAdministrator@runnervmowedg' on 2025-09-04

   xtb is free software: you can redistribute it and/or modify it under
   the terms of the GNU Lesser General Public License as published by
   the Free Software Foundation, either version 3 of the License, or
   (at your option) any later version.
   
   xtb is distributed in the hope that it will be useful,
   but WITHOUT ANY WARRANTY; without even the implied warranty of
   MERCHANTABILITY or FITNESS FOR A PARTICULAR PURPOSE.  See the
   GNU Lesser General Public License for more details.
   
   Cite this work as:
   * C. Bannwarth, E. Caldeweyher, S. Ehlert, A. Hansen, P. Pracht,
     J. Seibert, S. Spicher, S. Grimme, WIREs Comput. Mol. Sci., 2020, 11,
     e01493. DOI: 10.1002/wcms.1493
   
   for GFN2-xTB:
   * C. Bannwarth, S. Ehlert and S. Grimme., J. Chem. Theory Comput., 2019,
     15, 1652-1671. DOI: 10.1021/acs.jctc.8b01176
   for GFN1-xTB:
   * S. Grimme, C. Bannwarth, P. Shushkov, J. Chem. Theory Comput., 2017,
     13, 1989-2009. DOI: 10.1021/acs.jctc.7b00118
   for GFN0-xTB:
   * P. Pracht, E. Caldeweyher, S. Ehlert, S. Grimme, ChemRxiv, 2019, preprint.
     DOI: 10.26434/chemrxiv.8326202.v1
   for GFN-FF:
   * S. Spicher and S. Grimme, Angew. Chem. Int. Ed., 2020, 59, 15665-15673.
     DOI: 10.1002/anie.202004239
   
   for ALPB and GBSA implicit solvation:
   * S. Ehlert, M. Stahn, S. Spicher, S. Grimme, J. Chem. Theory Comput.,
     2021, 17, 4250-4261. DOI: 10.1021/acs.jctc.1c00471
   
   for ddCOSMO and CPCM-X implicit solvation:
   * M. Stahn, S. Ehlert, S. Grimme, J. Phys. Chem. A,
     2023, XX, XXXX-XXXX. DOI: 10.1021/acs.jpca.3c04382
   
   for DFT-D4:
   * E. Caldeweyher, C. Bannwarth and S. Grimme, J. Chem. Phys., 2017,
     147, 034112. DOI: 10.1063/1.4993215
   * E. Caldeweyher, S. Ehlert, A. Hansen, H. Neugebauer, S. Spicher,
     C. Bannwarth and S. Grimme, J. Chem. Phys., 2019, 150, 154122.
     DOI: 10.1063/1.5090222
   * E. Caldeweyher, J.-M. Mewes, S. Ehlert and S. Grimme, Phys. Chem. Chem. Phys.
     2020, 22, 8499-8512. DOI: 10.1039/D0CP00502A
   
   for sTDA-xTB:
   * S. Grimme and C. Bannwarth, J. Chem. Phys., 2016, 145, 054103.
     DOI: 10.1063/1.4959605
   
   in the mass-spec context:
   * V. Asgeirsson, C. Bauer and S. Grimme, Chem. Sci., 2017, 8, 4879.
     DOI: 10.1039/c7sc00601b
   * J. Koopman and S. Grimme, ACS Omega 2019, 4, 12, 15120-15133.
     DOI: 10.1021/acsomega.9b02011
   
   for metadynamics refer to:
   * S. Grimme, J. Chem. Theory Comput., 2019, 155, 2847-2862
     DOI: 10.1021/acs.jctc.9b00143
   
   for SPH calculations refer to:
   * S. Spicher and S. Grimme, J. Chem. Theory Comput., 2021, 17, 1701-1714
     DOI: 10.1021/acs.jctc.0c01306
   
   for ONIOM refer to:
   * C. Plett, A. Katbashev, S. Ehlert, S. Grimme, M. Bursch,
     Phys. Chem. Chem. Phys., 2023, 25, 17860-17868. DOI: 10.1039/D3CP02178E
   
   for DIPRO refer to:
   * J. Kohn, N. Gildemeister, S. Grimme, D. Fazzi, A. Hansen,
     J. Chem. Phys., 2023, just accepted.
   
   for PTB refer to:
   * S. Grimme, M. Mueller, A. Hansen, J. Chem. Phys., 2023, 158, 124111.
     DOI: 10.1063/5.0137838
   
   with help from (in alphabetical order)
   P. Atkinson, C. Bannwarth, F. Bohle, G. Brandenburg, E. Caldeweyher
   M. Checinski, S. Dohm, S. Ehlert, S. Ehrlich, I. Gerasimov, C. Hölzer
   A. Katbashev, J. Kohn, J. Koopman, C. Lavigne, S. Lehtola, F. März, M. Müller,
   F. Musil, H. Neugebauer, J. Pisarek, C. Plett, P. Pracht, F. Pultar,
   J. Seibert, P. Shushkov, S. Spicher, M. Stahn, M. Steiner, T. Strunk,
   J. Stückrath, T. Rose, and J. Unsleber
   
 * started run on 2026/03/05 at 12:40:01.815     
   ID    Z sym.   atoms
    1   40 Zr     1
    2   17 Cl     2, 3
    3    7 N      4
    4    6 C      5-21
    5    1 H      22-36

           -------------------------------------------------
          |                Calculation Setup                |
           -------------------------------------------------

          program call               : xtb sp.xyz --chrg 0 --uhf 0
          coordinate file            : sp.xyz
          omp threads                :                    12


molecular fragmentation (1/2 indicates fragments):
111111111111111222222111111111222222
# atoms in fragment 1/2:    24    12
 fragment masses (1/2) :      317.33       78.11
CMA distance (Bohr)    :   6.906
constraining FC (au)   :  0.0500

           -------------------------------------------------
          |                 G F N 2 - x T B                 |
           -------------------------------------------------

        Reference                      10.1021/acs.jctc.8b01176
      * Hamiltonian:
        H0-scaling (s, p, d)           1.850000    2.230000    2.230000
        zeta-weighting                 0.500000
      * Dispersion:
        s8                             2.700000
        a1                             0.520000
        a2                             5.000000
        s9                             5.000000
      * Repulsion:
        kExp                           1.500000    1.000000
        rExp                           1.000000
      * Coulomb:
        alpha                          2.000000
        third order                    shell-resolved
        anisotropic                    true
        a3                             3.000000
        a5                             4.000000
        cn-shift                       1.200000
        cn-exp                         4.000000
        max-rad                        5.000000

q/qsh data taken from xtbrestart
CAMM data taken from xtbrestart

          ...................................................
          :                      SETUP                      :
          :.................................................:
          :  # basis functions                 117          :
          :  # atomic orbitals                 114          :
          :  # shells                           60          :
          :  # electrons                       106          :
          :  max. iterations                   250          :
          :  Hamiltonian                  GFN2-xTB          :
          :  restarted?                       true          :
          :  GBSA solvation                  false          :
          :  PC potential                    false          :
          :  electronic temp.          300.0000000     K    :
          :  accuracy                    1.0000000          :
          :  -> integral cutoff          0.2500000E+02      :
          :  -> integral neglect         0.1000000E-07      :
          :  -> SCF convergence          0.1000000E-05 Eh   :
          :  -> wf. convergence          0.1000000E-03 e    :
          :  Broyden damping             0.4000000          :
          :  net charge                          0          :
          :  unpaired electrons                  0          :
          ...................................................

 iter      E             dE          RMSdq      gap      omega  full diag
   1    -58.3583943 -0.583584E+02  0.714E+00    0.24       0.0  T
   2    -57.9206393  0.437755E+00  0.487E+00    0.04       1.0  T
   3    -57.5594905  0.361149E+00  0.689E+00    0.09       1.0  T
   4    -58.0882810 -0.528791E+00  0.557E+00    1.57       1.0  T
   5    -57.9500579  0.138223E+00  0.399E+00    0.12       1.0  T
   6    -58.2676956 -0.317638E+00  0.396E+00    1.07       1.0  T
   7    -58.3127208 -0.450252E-01  0.308E+00    0.64       1.0  T
   8    -58.3352312 -0.225103E-01  0.250E+00    0.47       1.0  T
   9    -58.3580796 -0.228484E-01  0.158E+00    0.32       1.0  T
  10    -58.3580129  0.666824E-04  0.168E+00    0.36       1.0  T
  11    -58.3656710 -0.765808E-02  0.112E+00    0.22       1.0  T
  12    -58.3508411  0.148299E-01  0.149E+00    0.20       1.0  T
  13    -58.3433414  0.749966E-02  0.167E+00    0.19       1.0  T
  14    -58.3813338 -0.379924E-01  0.560E-01    0.26       1.0  T
  15    -58.3758353  0.549846E-02  0.898E-01    0.21       1.0  T
  16    -58.3652579  0.105774E-01  0.133E+00    0.20       1.0  T
  17    -58.3641646  0.109332E-02  0.130E+00    0.19       1.0  T
  18    -58.3859039 -0.217393E-01  0.636E-01    0.26       1.0  T
  19    -58.3882537 -0.234977E-02  0.293E-01    0.28       1.0  T
  20    -58.3880070  0.246689E-03  0.278E-01    0.30       1.0  T
  21    -58.3884390 -0.431964E-03  0.290E-01    0.31       1.0  T
  22    -58.3884522 -0.131874E-04  0.414E-01    0.34       1.0  T
  23    -58.3894489 -0.996721E-03  0.317E-01    0.33       1.0  T
  24    -58.3904393 -0.990420E-03  0.613E-02    0.29       1.0  T
  25    -58.3904801 -0.407682E-04  0.530E-02    0.29       1.0  T
  26    -58.3904013  0.787453E-04  0.954E-02    0.29       1.0  T
  27    -58.3905285 -0.127213E-03  0.549E-02    0.29       1.0  T
  28    -58.3905725 -0.439119E-04  0.279E-02    0.29       1.0  T
  29    -58.3905867 -0.142934E-04  0.150E-02    0.30       1.1  T
  30    -58.3905916 -0.488965E-05  0.501E-03    0.30       3.3  T
  31    -58.3905921 -0.483514E-06  0.323E-03    0.30       5.2  T
  32    -58.3905923 -0.182930E-06  0.240E-03    0.30       6.9  T
  33    -58.3905923 -0.266447E-07  0.158E-03    0.30      10.5  T
  34    -58.3905923 -0.189226E-07  0.197E-03    0.30       8.4  T
  35    -58.3905924 -0.113128E-07  0.188E-03    0.30       8.9  T
  36    -58.3905924 -0.389587E-07  0.289E-04    0.30      57.7  T
  37    -58.3905924 -0.113075E-08  0.967E-05    0.30     172.3  T

   *** convergence criteria satisfied after 37 iterations ***

         #    Occupation            Energy/Eh            Energy/eV
      -------------------------------------------------------------
         1        2.0000           -1.0564573             -28.7477
       ...           ...                  ...                  ...
        47        2.0000           -0.4105228             -11.1709
        48        2.0000           -0.3942475             -10.7280
        49        2.0000           -0.3921776             -10.6717
        50        2.0000           -0.3780669             -10.2877
        51        2.0000           -0.3703337             -10.0773
        52        1.9993           -0.3478622              -9.4658
        53        1.9912           -0.3454940              -9.4014 (HOMO)
        54        0.0044           -0.3345339              -9.1031 (LUMO)
        55        0.0040           -0.3344350              -9.1004
        56        0.0011           -0.3332191              -9.0674
        57        0.0001           -0.3303909              -8.9904
        58        0.0000           -0.3287250              -8.9451
       ...           ...                  ...                  ...
       114                          1.0283640              27.9832
      -------------------------------------------------------------
                  HL-Gap            0.0109601 Eh            0.2982 eV
             Fermi-level           -0.3403445 Eh           -9.2612 eV

 SCC (total)                   0 d,  0 h,  0 min,  0.220 sec
 SCC setup                      ...        0 min,  0.001 sec (  0.261%)
 Dispersion                     ...        0 min,  0.001 sec (  0.430%)
 classical contributions        ...        0 min,  0.000 sec (  0.091%)
 integral evaluation            ...        0 min,  0.010 sec (  4.725%)
 iterations                     ...        0 min,  0.191 sec ( 86.960%)
 molecular gradient             ...        0 min,  0.016 sec (  7.317%)
 printout                       ...        0 min,  0.000 sec (  0.201%)

         :::::::::::::::::::::::::::::::::::::::::::::::::::::
         ::                     SUMMARY                     ::
         :::::::::::::::::::::::::::::::::::::::::::::::::::::
         :: total energy             -57.599808516072 Eh    ::
         :: gradient norm              0.402636557671 Eh/a0 ::
         :: HOMO-LUMO gap              0.298239051649 eV    ::
         ::.................................................::
         :: SCC energy               -58.389079024396 Eh    ::
         :: -> isotropic ES            0.072783175771 Eh    ::
         :: -> anisotropic ES         -0.000205655046 Eh    ::
         :: -> anisotropic XC          0.023035100385 Eh    ::
         :: -> dispersion             -0.046500445368 Eh    ::
         :: repulsion energy           0.789270508324 Eh    ::
         :: add. restraining           0.000000000000 Eh    ::
         :: total charge              -0.000000000000 e     ::
         :::::::::::::::::::::::::::::::::::::::::::::::::::::

           -------------------------------------------------
          |                Property Printout                |
           -------------------------------------------------

    * Orbital Energies and Occupations

         #    Occupation            Energy/Eh            Energy/eV
      -------------------------------------------------------------
         1        2.0000           -1.0564573             -28.7477
       ...           ...                  ...                  ...
        41        2.0000           -0.4395807             -11.9616
        42        2.0000           -0.4363282             -11.8731
        43        2.0000           -0.4334144             -11.7938
        44        2.0000           -0.4299785             -11.7003
        45        2.0000           -0.4141483             -11.2695
        46        2.0000           -0.4128199             -11.2334
        47        2.0000           -0.4105228             -11.1709
        48        2.0000           -0.3942475             -10.7280
        49        2.0000           -0.3921776             -10.6717
        50        2.0000           -0.3780669             -10.2877
        51        2.0000           -0.3703337             -10.0773
        52        1.9993           -0.3478622              -9.4658
        53        1.9912           -0.3454940              -9.4014 (HOMO)
        54        0.0044           -0.3345339              -9.1031 (LUMO)
        55        0.0040           -0.3344350              -9.1004
        56        0.0011           -0.3332191              -9.0674
        57        0.0001           -0.3303909              -8.9904
        58        0.0000           -0.3287250              -8.9451
        59                         -0.3072469              -8.3606
        60                         -0.2870755              -7.8117
        61                         -0.2606665              -7.0931
        62                         -0.1823984              -4.9633
        63                         -0.1799451              -4.8966
        64                         -0.1669409              -4.5427
       ...                                ...                  ...
       114                          1.0283640              27.9832
      -------------------------------------------------------------
                  HL-Gap            0.0109601 Eh            0.2982 eV
             Fermi-level           -0.3403445 Eh           -9.2612 eV

     #   Z          covCN         q      C6AA      α(0)
     1  40 Zr       2.584     0.969   148.091    28.894
     2  17 Cl       0.488    -0.447   110.877    16.077
     3  17 Cl       0.488    -0.529   113.761    16.284
     4   7 N        2.324    -0.221    26.061     7.579
     5   6 C        3.006     0.100    25.779     8.329
     6   6 C        3.811    -0.079    22.000     6.676
     7   6 C        3.276    -0.033    27.374     8.426
     8   6 C        3.078    -0.068    29.599     8.920
     9   6 C        3.094    -0.061    29.409     8.888
    10   6 C        2.977    -0.062    29.545     8.916
    11   6 C        3.071    -0.096    30.341     9.032
    12   6 C        2.909    -0.036    28.904     8.816
    13   6 C        2.921     0.002    27.989     8.676
    14   6 C        2.910    -0.027    28.667     8.779
    15   6 C        3.187     0.102    25.310     8.208
    16   6 C        3.833    -0.086    22.107     6.690
    17   6 C        3.380    -0.026    25.150     7.813
    18   6 C        3.031    -0.068    29.655     8.932
    19   6 C        3.115    -0.074    29.673     8.923
    20   6 C        2.991    -0.052    29.286     8.877
    21   6 C        3.069    -0.065    29.531     8.911
    22   1 H        0.924     0.071     2.079     2.255
    23   1 H        0.924     0.073     2.049     2.239
    24   1 H        0.923     0.040     2.444     2.445
    25   1 H        0.925     0.045     2.380     2.413
    26   1 H        0.926     0.030     2.582     2.513
    27   1 H        0.922     0.015     2.811     2.622
    28   1 H        0.925     0.073     2.056     2.242
    29   1 H        0.925     0.074     2.046     2.237
    30   1 H        0.925     0.080     1.978     2.199
    31   1 H        0.924     0.089     1.892     2.151
    32   1 H        0.923     0.088     1.897     2.154
    33   1 H        0.923     0.034     2.532     2.489
    34   1 H        0.923     0.058     2.217     2.329
    35   1 H        0.927     0.052     2.299     2.371
    36   1 H        0.926     0.037     2.491     2.468

 Mol. C6AA /au·bohr⁶  :      22274.591717
 Mol. C8AA /au·bohr⁸  :     748358.446050
 Mol. α(0) /au        :        247.771081


Wiberg/Mayer (AO) data.
largest (>0.10) Wiberg bond orders for each atom

 ---------------------------------------------------------------------------
     #   Z sym  total        # sym  WBO       # sym  WBO       # sym  WBO
 ---------------------------------------------------------------------------
     1  40 Zr   4.002 --     2 Cl   0.607     3 Cl   0.563    17 C    0.333
                            19 C    0.310     4 N    0.262    11 C    0.239
                             7 C    0.229     8 C    0.186    21 C    0.185
                             9 C    0.172    18 C    0.128    20 C    0.104
     2  17 Cl   0.773 --     1 Zr   0.607
     3  17 Cl   0.680 --     1 Zr   0.563
     4   7 N    3.197 --     5 C    1.312    15 C    1.298     1 Zr   0.262
     5   6 C    3.961 --    12 C    1.395     4 N    1.312     6 C    0.984
                            14 C    0.104
     6   6 C    3.985 --     5 C    0.984    23 H    0.961    22 H    0.947
                             7 C    0.940
     7   6 C    3.957 --     8 C    1.369    11 C    1.174     6 C    0.940
                             1 Zr   0.229
     8   6 C    3.944 --     7 C    1.369     9 C    1.217    24 H    0.927
                             1 Zr   0.186    11 C    0.111
     9   6 C    3.965 --    10 C    1.484     8 C    1.217    25 H    0.949
                             1 Zr   0.172
    10   6 C    3.978 --     9 C    1.484    11 C    1.323    26 H    0.953
    11   6 C    3.911 --    10 C    1.323     7 C    1.174    27 H    0.933
                             1 Zr   0.239     8 C    0.111
    12   6 C    3.985 --    13 C    1.427     5 C    1.395    28 H    0.962
                            15 C    0.101
    13   6 C    3.976 --    12 C    1.427    14 C    1.424    29 H    0.966
    14   6 C    3.983 --    13 C    1.424    15 C    1.386    30 H    0.960
                             5 C    0.104
    15   6 C    3.961 --    14 C    1.386     4 N    1.298    16 C    0.967
                            12 C    0.101
    16   6 C    3.982 --    15 C    0.967    32 H    0.950    17 C    0.946
                            31 H    0.936
    17   6 C    3.954 --    18 C    1.363    21 C    1.108    16 C    0.946
                             1 Zr   0.333
    18   6 C    3.946 --    17 C    1.363    19 C    1.312    33 H    0.926
                             1 Zr   0.128
    19   6 C    3.959 --    18 C    1.312    20 C    1.282    34 H    0.936
                             1 Zr   0.310
    20   6 C    3.982 --    21 C    1.517    19 C    1.282    35 H    0.956
                             1 Zr   0.104
    21   6 C    3.957 --    20 C    1.517    17 C    1.108    36 H    0.944
                             1 Zr   0.185
    22   1 H    0.994 --     6 C    0.947
    23   1 H    0.994 --     6 C    0.961
    24   1 H    0.996 --     8 C    0.927
    25   1 H    0.995 --     9 C    0.949
    26   1 H    0.997 --    10 C    0.953
    27   1 H    0.997 --    11 C    0.933
    28   1 H    0.994 --    12 C    0.962
    29   1 H    0.994 --    13 C    0.966
    30   1 H    0.992 --    14 C    0.960
    31   1 H    0.992 --    16 C    0.936
    32   1 H    0.990 --    16 C    0.950
    33   1 H    0.997 --    18 C    0.926
    34   1 H    0.994 --    19 C    0.936
    35   1 H    0.995 --    20 C    0.956
    36   1 H    0.996 --    21 C    0.944
 ---------------------------------------------------------------------------

Topologies differ in total number of bonds
Writing topology from bond orders to xtbtopo.mol

molecular dipole:
                 x           y           z       tot (Debye)
 q only:        0.206      -0.118       3.403
   full:        1.205       0.089       2.972       8.154
molecular quadrupole (traceless):
                xx          xy          yy          xz          yz          zz
 q only:      -16.747      -3.472       2.709       0.316       2.447      14.038
  q+dip:      -12.002      -3.088      -4.452       0.777       4.309      16.453
   full:      -12.420      -2.619      -7.553      -2.143       3.597      19.974


           -------------------------------------------------
          | TOTAL ENERGY              -57.599808516072 Eh   |
          | GRADIENT NORM               0.402636557671 Eh/α |
          | HOMO-LUMO GAP               0.298239051649 eV   |
           -------------------------------------------------

------------------------------------------------------------------------
 * finished run on 2026/03/05 at 12:40:02.079     
------------------------------------------------------------------------
 total:
 * wall-time:     0 d,  0 h,  0 min,  0.264 sec
 *  cpu-time:     0 d,  0 h,  0 min,  1.594 sec
 * ratio c/w:     6.031 speedup
 SCF:
 * wall-time:     0 d,  0 h,  0 min,  0.221 sec
 *  cpu-time:     0 d,  0 h,  0 min,  1.578 sec
 * ratio c/w:     7.154 speedup

