      -----------------------------------------------------------      
     |                   =====================                   |     
     |                           x T B                           |     
     |                   =====================                   |     
     |                         S. Grimme                         |     
     |          Mulliken Center for Theoretical Chemistry        |     
     |                    University of Bonn                     |     
      -----------------------------------------------------------      

   * xtb version 6.7.1 (edcfbbe) compiled by 'VssAdministrator@runnervmowedg' on 2025-09-04

   xtb is free software: you can redistribute it and/or modify it under
   the terms of the GNU Lesser General Public License as published by
   the Free Software Foundation, either version 3 of the License, or
   (at your option) any later version.
   
   xtb is distributed in the hope that it will be useful,
   but WITHOUT ANY WARRANTY; without even the implied warranty of
   MERCHANTABILITY or FITNESS FOR A PARTICULAR PURPOSE.  See the
   GNU Lesser General Public License for more details.
   
   Cite this work as:
   * C. Bannwarth, E. Caldeweyher, S. Ehlert, A. Hansen, P. Pracht,
     J. Seibert, S. Spicher, S. Grimme, WIREs Comput. Mol. Sci., 2020, 11,
     e01493. DOI: 10.1002/wcms.1493
   
   for GFN2-xTB:
   * C. Bannwarth, S. Ehlert and S. Grimme., J. Chem. Theory Comput., 2019,
     15, 1652-1671. DOI: 10.1021/acs.jctc.8b01176
   for GFN1-xTB:
   * S. Grimme, C. Bannwarth, P. Shushkov, J. Chem. Theory Comput., 2017,
     13, 1989-2009. DOI: 10.1021/acs.jctc.7b00118
   for GFN0-xTB:
   * P. Pracht, E. Caldeweyher, S. Ehlert, S. Grimme, ChemRxiv, 2019, preprint.
     DOI: 10.26434/chemrxiv.8326202.v1
   for GFN-FF:
   * S. Spicher and S. Grimme, Angew. Chem. Int. Ed., 2020, 59, 15665-15673.
     DOI: 10.1002/anie.202004239
   
   for ALPB and GBSA implicit solvation:
   * S. Ehlert, M. Stahn, S. Spicher, S. Grimme, J. Chem. Theory Comput.,
     2021, 17, 4250-4261. DOI: 10.1021/acs.jctc.1c00471
   
   for ddCOSMO and CPCM-X implicit solvation:
   * M. Stahn, S. Ehlert, S. Grimme, J. Phys. Chem. A,
     2023, XX, XXXX-XXXX. DOI: 10.1021/acs.jpca.3c04382
   
   for DFT-D4:
   * E. Caldeweyher, C. Bannwarth and S. Grimme, J. Chem. Phys., 2017,
     147, 034112. DOI: 10.1063/1.4993215
   * E. Caldeweyher, S. Ehlert, A. Hansen, H. Neugebauer, S. Spicher,
     C. Bannwarth and S. Grimme, J. Chem. Phys., 2019, 150, 154122.
     DOI: 10.1063/1.5090222
   * E. Caldeweyher, J.-M. Mewes, S. Ehlert and S. Grimme, Phys. Chem. Chem. Phys.
     2020, 22, 8499-8512. DOI: 10.1039/D0CP00502A
   
   for sTDA-xTB:
   * S. Grimme and C. Bannwarth, J. Chem. Phys., 2016, 145, 054103.
     DOI: 10.1063/1.4959605
   
   in the mass-spec context:
   * V. Asgeirsson, C. Bauer and S. Grimme, Chem. Sci., 2017, 8, 4879.
     DOI: 10.1039/c7sc00601b
   * J. Koopman and S. Grimme, ACS Omega 2019, 4, 12, 15120-15133.
     DOI: 10.1021/acsomega.9b02011
   
   for metadynamics refer to:
   * S. Grimme, J. Chem. Theory Comput., 2019, 155, 2847-2862
     DOI: 10.1021/acs.jctc.9b00143
   
   for SPH calculations refer to:
   * S. Spicher and S. Grimme, J. Chem. Theory Comput., 2021, 17, 1701-1714
     DOI: 10.1021/acs.jctc.0c01306
   
   for ONIOM refer to:
   * C. Plett, A. Katbashev, S. Ehlert, S. Grimme, M. Bursch,
     Phys. Chem. Chem. Phys., 2023, 25, 17860-17868. DOI: 10.1039/D3CP02178E
   
   for DIPRO refer to:
   * J. Kohn, N. Gildemeister, S. Grimme, D. Fazzi, A. Hansen,
     J. Chem. Phys., 2023, just accepted.
   
   for PTB refer to:
   * S. Grimme, M. Mueller, A. Hansen, J. Chem. Phys., 2023, 158, 124111.
     DOI: 10.1063/5.0137838
   
   with help from (in alphabetical order)
   P. Atkinson, C. Bannwarth, F. Bohle, G. Brandenburg, E. Caldeweyher
   M. Checinski, S. Dohm, S. Ehlert, S. Ehrlich, I. Gerasimov, C. Hölzer
   A. Katbashev, J. Kohn, J. Koopman, C. Lavigne, S. Lehtola, F. März, M. Müller,
   F. Musil, H. Neugebauer, J. Pisarek, C. Plett, P. Pracht, F. Pultar,
   J. Seibert, P. Shushkov, S. Spicher, M. Stahn, M. Steiner, T. Strunk,
   J. Stückrath, T. Rose, and J. Unsleber
   
 * started run on 2026/03/05 at 12:14:29.445     
   ID    Z sym.   atoms
    1   40 Zr     1
    2   17 Cl     2, 3
    3    7 N      4
    4    6 C      5-21
    5    1 H      22-36

           -------------------------------------------------
          |                Calculation Setup                |
           -------------------------------------------------

          program call               : xtb sp.xyz --chrg 0 --uhf 0
          coordinate file            : sp.xyz
          omp threads                :                    12


molecular fragmentation (1/2 indicates fragments):
111111111111111111111121111111111111
# atoms in fragment 1/2:    35     1
 fragment masses (1/2) :      394.43        1.01
CMA distance (Bohr)    :   4.481
constraining FC (au)   :  0.0500

           -------------------------------------------------
          |                 G F N 2 - x T B                 |
           -------------------------------------------------

        Reference                      10.1021/acs.jctc.8b01176
      * Hamiltonian:
        H0-scaling (s, p, d)           1.850000    2.230000    2.230000
        zeta-weighting                 0.500000
      * Dispersion:
        s8                             2.700000
        a1                             0.520000
        a2                             5.000000
        s9                             5.000000
      * Repulsion:
        kExp                           1.500000    1.000000
        rExp                           1.000000
      * Coulomb:
        alpha                          2.000000
        third order                    shell-resolved
        anisotropic                    true
        a3                             3.000000
        a5                             4.000000
        cn-shift                       1.200000
        cn-exp                         4.000000
        max-rad                        5.000000

q/qsh data taken from xtbrestart
CAMM data taken from xtbrestart

          ...................................................
          :                      SETUP                      :
          :.................................................:
          :  # basis functions                 117          :
          :  # atomic orbitals                 114          :
          :  # shells                           60          :
          :  # electrons                       106          :
          :  max. iterations                   250          :
          :  Hamiltonian                  GFN2-xTB          :
          :  restarted?                       true          :
          :  GBSA solvation                  false          :
          :  PC potential                    false          :
          :  electronic temp.          300.0000000     K    :
          :  accuracy                    1.0000000          :
          :  -> integral cutoff          0.2500000E+02      :
          :  -> integral neglect         0.1000000E-07      :
          :  -> SCF convergence          0.1000000E-05 Eh   :
          :  -> wf. convergence          0.1000000E-03 e    :
          :  Broyden damping             0.4000000          :
          :  net charge                          0          :
          :  unpaired electrons                  0          :
          ...................................................

 iter      E             dE          RMSdq      gap      omega  full diag
   1    -57.9089608 -0.579090E+02  0.511E+00    0.02       0.0  T
   2    -58.0902391 -0.181278E+00  0.449E+00    0.56       1.0  T
   3    -58.1007173 -0.104782E-01  0.371E+00    0.07       1.0  T
   4    -58.2449990 -0.144282E+00  0.309E+00    0.87       1.0  T
   5    -58.2791060 -0.341070E-01  0.255E+00    0.98       1.0  T
   6    -58.2934389 -0.143330E-01  0.205E+00    0.55       1.0  T
   7    -58.2996977 -0.625875E-02  0.172E+00    0.67       1.0  T
   8    -58.3123736 -0.126759E-01  0.115E+00    0.73       1.0  T
   9    -58.3203970 -0.802345E-02  0.959E-01    0.65       1.0  T
  10    -58.3157271  0.466992E-02  0.110E+00    0.76       1.0  T
  11    -58.3277565 -0.120293E-01  0.681E-01    0.50       1.0  T
  12    -58.3334675 -0.571101E-02  0.596E-01    0.25       1.0  T
  13    -58.3340320 -0.564561E-03  0.561E-01    0.25       1.0  T
  14    -58.3353824 -0.135035E-02  0.368E-01    0.27       1.0  T
  15    -58.2536583  0.817241E-01  0.210E+00    0.16       1.0  T
  16    -58.2516003  0.205800E-02  0.213E+00    0.15       1.0  T
  17    -58.2901249 -0.385246E-01  0.161E+00    0.18       1.0  T
  18    -58.3253040 -0.351791E-01  0.821E-01    0.22       1.0  T
  19    -58.3342073 -0.890328E-02  0.391E-01    0.26       1.0  T
  20    -58.3361482 -0.194096E-02  0.219E-01    0.28       1.0  T
  21    -58.3369093 -0.761070E-03  0.101E-01    0.29       1.0  T
  22    -58.3370907 -0.181414E-03  0.778E-02    0.31       1.0  T
  23    -58.3368114  0.279354E-03  0.149E-01    0.33       1.0  T
  24    -58.3363567  0.454709E-03  0.213E-01    0.34       1.0  T
  25    -58.3360827  0.273932E-03  0.239E-01    0.35       1.0  T
  26    -58.3364238 -0.341065E-03  0.192E-01    0.34       1.0  T
  27    -58.3368581 -0.434304E-03  0.119E-01    0.33       1.0  T
  28    -58.3370249 -0.166820E-03  0.739E-02    0.32       1.0  T
  29    -58.3370850 -0.600867E-04  0.494E-02    0.31       1.0  T
  30    -58.3371250 -0.399820E-04  0.192E-02    0.31       1.0  T
  31    -58.3371318 -0.679198E-05  0.457E-03    0.31       3.6  T
  32    -58.3371321 -0.361093E-06  0.676E-04    0.31      24.7  T
  33    -58.3371319  0.221972E-06  0.343E-03    0.31       4.9  T
  34    -58.3371321 -0.212190E-06  0.977E-04    0.31      17.1  T

   *** convergence criteria satisfied after 34 iterations ***

         #    Occupation            Energy/Eh            Energy/eV
      -------------------------------------------------------------
         1        2.0000           -1.0326083             -28.0987
       ...           ...                  ...                  ...
        47        2.0000           -0.3810545             -10.3690
        48        2.0000           -0.3807788             -10.3615
        49        2.0000           -0.3771539             -10.2629
        50        2.0000           -0.3720947             -10.1252
        51        2.0000           -0.3632011              -9.8832
        52        2.0000           -0.3622129              -9.8563
        53        1.9936           -0.3468898              -9.4394 (HOMO)
        54        0.0045           -0.3356478              -9.1334 (LUMO)
        55        0.0013           -0.3344396              -9.1006
        56        0.0005           -0.3336326              -9.0786
        57        0.0000           -0.3312617              -9.0141
        58        0.0000           -0.3310886              -9.0094
       ...           ...                  ...                  ...
       114                          1.4227641              38.7154
      -------------------------------------------------------------
                  HL-Gap            0.0112420 Eh            0.3059 eV
             Fermi-level           -0.3414355 Eh           -9.2909 eV

 SCC (total)                   0 d,  0 h,  0 min,  0.143 sec
 SCC setup                      ...        0 min,  0.001 sec (  0.443%)
 Dispersion                     ...        0 min,  0.001 sec (  0.915%)
 classical contributions        ...        0 min,  0.000 sec (  0.135%)
 integral evaluation            ...        0 min,  0.008 sec (  5.704%)
 iterations                     ...        0 min,  0.119 sec ( 82.823%)
 molecular gradient             ...        0 min,  0.014 sec (  9.714%)
 printout                       ...        0 min,  0.000 sec (  0.245%)

         :::::::::::::::::::::::::::::::::::::::::::::::::::::
         ::                     SUMMARY                     ::
         :::::::::::::::::::::::::::::::::::::::::::::::::::::
         :: total energy             -57.555914346043 Eh    ::
         :: gradient norm              0.410862844863 Eh/a0 ::
         :: HOMO-LUMO gap              0.305911743184 eV    ::
         ::.................................................::
         :: SCC energy               -58.335697247026 Eh    ::
         :: -> isotropic ES            0.086392400748 Eh    ::
         :: -> anisotropic ES         -0.002670763638 Eh    ::
         :: -> anisotropic XC          0.019956950036 Eh    ::
         :: -> dispersion             -0.043909868448 Eh    ::
         :: repulsion energy           0.779782900984 Eh    ::
         :: add. restraining           0.000000000000 Eh    ::
         :: total charge              -0.000000000069 e     ::
         :::::::::::::::::::::::::::::::::::::::::::::::::::::

           -------------------------------------------------
          |                Property Printout                |
           -------------------------------------------------

    * Orbital Energies and Occupations

         #    Occupation            Energy/Eh            Energy/eV
      -------------------------------------------------------------
         1        2.0000           -1.0326083             -28.0987
       ...           ...                  ...                  ...
        41        2.0000           -0.4423216             -12.0362
        42        2.0000           -0.4370206             -11.8919
        43        2.0000           -0.4324676             -11.7680
        44        2.0000           -0.4183818             -11.3847
        45        2.0000           -0.3866709             -10.5219
        46        2.0000           -0.3853283             -10.4853
        47        2.0000           -0.3810545             -10.3690
        48        2.0000           -0.3807788             -10.3615
        49        2.0000           -0.3771539             -10.2629
        50        2.0000           -0.3720947             -10.1252
        51        2.0000           -0.3632011              -9.8832
        52        2.0000           -0.3622129              -9.8563
        53        1.9936           -0.3468898              -9.4394 (HOMO)
        54        0.0045           -0.3356478              -9.1334 (LUMO)
        55        0.0013           -0.3344396              -9.1006
        56        0.0005           -0.3336326              -9.0786
        57        0.0000           -0.3312617              -9.0141
        58        0.0000           -0.3310886              -9.0094
        59                         -0.3231849              -8.7943
        60                         -0.2957900              -8.0489
        61                         -0.2408853              -6.5548
        62                         -0.2024713              -5.5095
        63                         -0.1940753              -5.2811
        64                         -0.1771326              -4.8200
       ...                                ...                  ...
       114                          1.4227641              38.7154
      -------------------------------------------------------------
                  HL-Gap            0.0112420 Eh            0.3059 eV
             Fermi-level           -0.3414355 Eh           -9.2909 eV

     #   Z          covCN         q      C6AA      α(0)
     1  40 Zr       3.518     1.013   102.746    24.391
     2  17 Cl       0.519    -0.436   111.090    16.099
     3  17 Cl       0.521    -0.519   114.063    16.313
     4   7 N        2.324    -0.204    25.660     7.521
     5   6 C        3.004     0.101    25.751     8.324
     6   6 C        4.195    -0.118    22.656     6.760
     7   6 C        3.648    -0.031    21.466     6.657
     8   6 C        3.426    -0.084    25.302     7.684
     9   6 C        3.009    -0.081    29.996     8.984
    10   6 C        3.075    -0.065    29.536     8.911
    11   6 C        3.126    -0.098    30.263     9.008
    12   6 C        2.908    -0.033    28.827     8.804
    13   6 C        2.920    -0.004    28.133     8.698
    14   6 C        2.912    -0.046    29.153     8.854
    15   6 C        2.954     0.099    25.799     8.331
    16   6 C        3.804    -0.085    22.120     6.696
    17   6 C        3.349    -0.038    26.105     8.055
    18   6 C        3.033    -0.065    29.588     8.922
    19   6 C        3.095    -0.070    29.626     8.921
    20   6 C        2.972    -0.046    29.147     8.856
    21   6 C        3.066    -0.071    29.694     8.935
    22   1 H        0.924     0.099     1.794     2.094
    23   1 H        0.996     0.161     1.314     1.791
    24   1 H        0.923     0.001     3.038     2.726
    25   1 H        0.926     0.015     2.811     2.622
    26   1 H        0.927     0.028     2.614     2.528
    27   1 H        0.920     0.058     2.220     2.330
    28   1 H        0.925     0.075     2.032     2.229
    29   1 H        0.925     0.067     2.123     2.279
    30   1 H        0.925     0.060     2.200     2.320
    31   1 H        0.923     0.064     2.153     2.295
    32   1 H        0.924     0.088     1.898     2.154
    33   1 H        0.924     0.020     2.727     2.582
    34   1 H        0.924     0.052     2.292     2.367
    35   1 H        0.927     0.059     2.209     2.324
    36   1 H        0.925     0.033     2.540     2.492

 Mol. C6AA /au·bohr⁶  :      21445.423093
 Mol. C8AA /au·bohr⁸  :     696181.009507
 Mol. α(0) /au        :        240.857508


Wiberg/Mayer (AO) data.
largest (>0.10) Wiberg bond orders for each atom

 ---------------------------------------------------------------------------
     #   Z sym  total        # sym  WBO       # sym  WBO       # sym  WBO
 ---------------------------------------------------------------------------
     1  40 Zr   3.949 --     2 Cl   0.644     3 Cl   0.577    17 C    0.323
                             4 N    0.294    19 C    0.268     7 C    0.249
                            11 C    0.184     8 C    0.173    18 C    0.163
                            21 C    0.159     6 C    0.122     9 C    0.117
     2  17 Cl   0.855 --     1 Zr   0.644
     3  17 Cl   0.811 --     1 Zr   0.577
     4   7 N    3.284 --    15 C    1.344     5 C    1.310     1 Zr   0.294
     5   6 C    3.956 --    12 C    1.423     4 N    1.310     6 C    0.974
                            14 C    0.109
     6   6 C    3.978 --     5 C    0.974    22 H    0.953     7 C    0.903
                            23 H    0.839     1 Zr   0.122
     7   6 C    3.955 --     8 C    1.320    11 C    1.225     6 C    0.903
                             1 Zr   0.249
     8   6 C    3.926 --     7 C    1.320     9 C    1.249    24 H    0.920
                             1 Zr   0.173    11 C    0.127
     9   6 C    3.967 --    10 C    1.501     8 C    1.249    25 H    0.951
                             1 Zr   0.117
    10   6 C    3.972 --     9 C    1.501    11 C    1.278    26 H    0.958
    11   6 C    3.872 --    10 C    1.278     7 C    1.225    27 H    0.908
                             1 Zr   0.184     8 C    0.127
    12   6 C    3.983 --     5 C    1.423    13 C    1.417    28 H    0.961
    13   6 C    3.975 --    14 C    1.435    12 C    1.417    29 H    0.967
    14   6 C    3.986 --    13 C    1.435    15 C    1.390    30 H    0.965
                             5 C    0.109
    15   6 C    3.958 --    14 C    1.390     4 N    1.344    16 C    0.967
    16   6 C    3.981 --    15 C    0.967    31 H    0.951    17 C    0.950
                            32 H    0.939
    17   6 C    3.955 --    18 C    1.320    21 C    1.132    16 C    0.950
                             1 Zr   0.323
    18   6 C    3.933 --    17 C    1.320    19 C    1.304    33 H    0.926
                             1 Zr   0.163
    19   6 C    3.951 --    18 C    1.304    20 C    1.297    34 H    0.946
                             1 Zr   0.268
    20   6 C    3.981 --    21 C    1.540    19 C    1.297    35 H    0.959
    21   6 C    3.955 --    20 C    1.540    17 C    1.132    36 H    0.943
                             1 Zr   0.159
    22   1 H    0.988 --     6 C    0.953
    23   1 H    0.973 --     6 C    0.839
    24   1 H    0.996 --     8 C    0.920
    25   1 H    0.998 --     9 C    0.951
    26   1 H    0.997 --    10 C    0.958
    27   1 H    0.993 --    11 C    0.908
    28   1 H    0.993 --    12 C    0.961
    29   1 H    0.994 --    13 C    0.967
    30   1 H    0.996 --    14 C    0.965
    31   1 H    0.994 --    16 C    0.951
    32   1 H    0.992 --    16 C    0.939
    33   1 H    0.996 --    18 C    0.926
    34   1 H    0.994 --    19 C    0.946
    35   1 H    0.995 --    20 C    0.959
    36   1 H    0.997 --    21 C    0.943
 ---------------------------------------------------------------------------

Topologies differ in total number of bonds
Writing topology from bond orders to xtbtopo.mol

molecular dipole:
                 x           y           z       tot (Debye)
 q only:       -3.546       1.231       3.562
   full:       -4.046       1.307       3.477      13.960
molecular quadrupole (traceless):
                xx          xy          yy          xz          yz          zz
 q only:      -15.169       9.741      -1.413       0.931       1.879      16.582
  q+dip:       -8.573       6.159     -11.431      -3.601       2.965      20.004
   full:       -7.416       5.358     -14.184      -0.643       1.411      21.600


           -------------------------------------------------
          | TOTAL ENERGY              -57.555914346043 Eh   |
          | GRADIENT NORM               0.410862844863 Eh/α |
          | HOMO-LUMO GAP               0.305911743184 eV   |
           -------------------------------------------------

------------------------------------------------------------------------
 * finished run on 2026/03/05 at 12:14:29.629     
------------------------------------------------------------------------
 total:
 * wall-time:     0 d,  0 h,  0 min,  0.184 sec
 *  cpu-time:     0 d,  0 h,  0 min,  1.375 sec
 * ratio c/w:     7.474 speedup
 SCF:
 * wall-time:     0 d,  0 h,  0 min,  0.144 sec
 *  cpu-time:     0 d,  0 h,  0 min,  1.219 sec
 * ratio c/w:     8.476 speedup

