36
 energy: -57.418394593709 gnorm: 0.608485632383 xtb: 6.7.1 (edcfbbe)
Zr           0.00000000000000        0.00000000000000        0.00000000000000
Cl           0.00000000000000       -0.00000000000000       -1.93900000000000
Cl           1.93900000000000        0.00000000000000       -0.00000000000000
N            0.20099400000000       -0.00837900000000        1.71020900000000
C            1.21233400000000        0.74830400000000        2.27048900000000
C            1.53747000000000        1.87455400000000        1.33811200000000
C            0.25924900000000        2.07528600000000        0.58768900000000
C           -1.02675500000000        2.03976600000000        1.02233300000000
C           -1.91151900000000        1.85653300000000       -0.09809000000000
C           -1.18168300000000        1.88829600000000       -1.22191500000000
C            0.19712300000000        2.00995100000000       -0.83622600000000
C            1.53896700000000        0.82559400000000        3.62410600000000
C            0.67851700000000        0.22969200000000        4.54246400000000
C           -0.49905300000000       -0.35312200000000        4.08971200000000
C           -0.70061600000000       -0.42180000000000        2.71691300000000
C           -1.96933700000000       -0.94747600000000        2.09948300000000
C           -1.48364300000000       -1.50440000000000        0.82263300000000
C           -0.39917700000000       -2.30839300000000        0.85431100000000
C           -0.03001200000000       -2.54322600000000       -0.48793700000000
C           -0.96131300000000       -1.86136000000000       -1.34090200000000
C           -1.81765000000000       -1.19698800000000       -0.54848200000000
H            2.35956500000000        1.56830300000000        0.68309900000000
H            1.82345300000000        2.78948000000000        1.86659200000000
H           -1.36657100000000        2.05243500000000        2.04596600000000
H           -2.98427200000000        1.75765900000000       -0.02548600000000
H           -1.54139600000000        1.78733900000000       -2.23273800000000
H            1.02135200000000        1.78288300000000       -1.48593400000000
H            2.35735600000000        1.44883000000000        3.96771200000000
H            0.87374300000000        0.30874800000000        5.60819000000000
H           -1.23789000000000       -0.73445400000000        4.78531100000000
H           -2.69429400000000       -0.14136200000000        1.95899500000000
H           -2.42906700000000       -1.72458600000000        2.71967900000000
H            0.14248800000000       -2.69180700000000        1.70500400000000
H            0.80698000000000       -3.13532500000000       -0.81961300000000
H           -0.95789200000000       -1.88980200000000       -2.41805800000000
H           -2.66385700000000       -0.61929900000000       -0.87259800000000
