36
 energy: -57.464941636927 gnorm: 0.615561840794 xtb: 6.7.1 (edcfbbe)
Zr           0.00000000000000        0.00000000000000        0.00000000000000
Cl           0.00000000000000        0.00000000000000       -1.93900000000000
Cl           1.93900000000000        0.00000000000000        0.00000000000000
N            0.20676100000000        0.00962700000000        1.70951500000000
C            1.21025000000000        0.76181100000000        2.29027400000000
C            1.50403700000000        1.95319500000000        1.42827600000000
C            0.27698700000000        2.11532400000000        0.59528100000000
C            0.23396100000000        2.09640900000000       -0.73780200000000
C           -1.13664100000000        1.90743200000000       -1.16303400000000
C           -1.94681000000000        1.75931400000000       -0.10506600000000
C           -1.11766900000000        1.98949500000000        1.03712200000000
C            1.55217500000000        0.78866000000000        3.64374900000000
C            0.69258700000000        0.17760700000000        4.55081200000000
C           -0.49850100000000       -0.36627900000000        4.08848400000000
C           -0.70668800000000       -0.39854100000000        2.71383200000000
C           -1.98695500000000       -0.92077000000000        2.10394900000000
C           -1.50955800000000       -1.50876500000000        0.83988100000000
C           -0.41587400000000       -2.29806000000000        0.90398000000000
C            0.02150000000000       -2.50114300000000       -0.42255500000000
C           -0.92462800000000       -1.88442500000000       -1.30638200000000
C           -1.83084600000000       -1.24916200000000       -0.54478000000000
H            1.66914000000000        2.85417300000000        2.02904400000000
H            2.39699100000000        1.76138800000000        0.82482700000000
H            1.07459600000000        2.06533000000000       -1.40872300000000
H           -1.43592500000000        1.84793800000000       -2.19850400000000
H           -3.01541200000000        1.61966800000000       -0.10448600000000
H           -1.47357500000000        2.27705400000000        2.01599900000000
H            2.37803900000000        1.39507800000000        3.99990000000000
H            0.89812500000000        0.21920200000000        5.61651400000000
H           -1.23913300000000       -0.75617600000000        4.77737600000000
H           -2.70589100000000       -0.11173800000000        1.95475400000000
H           -2.45379600000000       -1.68172400000000        2.73912600000000
H            0.12440000000000       -2.65174200000000        1.76872800000000
H            0.93301900000000       -2.99010200000000       -0.72016700000000
H           -0.89303600000000       -1.92596400000000       -2.38247000000000
H           -2.69336600000000       -0.71409100000000       -0.89922300000000
