36
 energy: -54.814230392037 gnorm: 0.029816016030 xtb: 6.7.1 (edcfbbe)
Zr          -0.24243103426189        0.62176759727943       -0.03790933787097
Cl          -0.28206395017193        0.21813134346185       -2.26186729208314
Cl           2.12579034826274        0.53321955842007       -0.16337493070964
N            0.04202910627123        0.60192123772352        1.99484655933679
C           -2.19991078291438        0.37296657559016        1.72346111140011
C           -2.37847132912846        2.09592688422134        2.73642575017892
C           -1.42524959957232        1.93359096069479        1.03383757476430
C           -2.37920632589146        1.94529792100025       -0.32590705259944
C           -1.42864270720555        2.64809073132748       -1.49393174405830
C            0.03952803352614        3.13050970605968       -0.84489978634209
C           -0.35180670996468        3.19569678292213        0.78747494027704
C           -2.32442157143420       -0.36733419054866        3.55810991563113
C           -0.67619567969774       -1.08307110980108        4.47650114470143
C            0.11161106931879       -2.46445227221758        3.28504887097382
C            0.51791007154874       -1.28593646124516        1.85430327689602
C            1.80592517586105       -2.37905810007173        0.79087773059607
C            0.33571465502187       -1.29981088551897        0.00436495350720
C           -1.37455557792286       -1.24107613414639       -0.57998978425589
C           -2.21401064101020       -1.28053964772045        0.90233130639541
C           -1.01796857187940       -2.50078235454546        1.10371336986329
C           -0.08088740736782       -2.81021343544494       -0.32599139735543
H           -0.74518190962902        1.96349380151322        2.90845717503771
H           -3.50927880410896        0.99067809157305        2.74618030974979
H           -2.82787574828689        0.12831283144156       -0.57129387913070
H           -1.00325466529278        2.02028113681309       -3.12417950505039
H            1.73263729481904        2.80917195711941       -1.41633212848998
H            1.13185653275104        1.85344898871362        1.33515199727496
H           -3.91427305498815        0.53606767622378        4.40090072832933
H           -1.48274120705359       -2.67249913340551        5.92980913522710
H            1.50551081778848       -4.12474623682090        3.28443802685384
H            0.97719242112999       -3.02461535921262        2.04059391336151
H            2.88368041207267       -1.31400245051871        0.03983859576739
H           -1.48328935216810       -1.63812915447649       -2.30058901878251
H           -2.50216937725819       -1.60289690749566        2.52439214621716
H           -0.97875228835068       -3.59521599715851        2.54868807601389
H           -0.43918364281203       -3.61137895175030       -2.03724275162714
