36
 energy: -57.464941639008 gnorm: 0.615561603691 xtb: 6.7.1 (edcfbbe)
Zr           0.00000000000000        0.00000000000000        0.00000000000000
Cl           0.00000000000000        0.00000000000000       -1.93900000000000
Cl           1.93900000000000        0.00000000000000        0.00000000000000
N            0.20676100000000        0.00962700000000        1.70951500000000
C            1.21025000000000        0.76181100000000        2.29027400000000
C            1.50403700000000        1.95319500000000        1.42827600000000
C            0.27698700000000        2.11532400000000        0.59528100000000
C            0.23396100000000        2.09640900000000       -0.73780200000000
C           -1.13664100000000        1.90743200000000       -1.16303400000000
C           -1.94681000000000        1.75931400000000       -0.10506600000000
C           -1.11766900000000        1.98949500000000        1.03712200000000
C            1.55217500000000        0.78866000000000        3.64374900000000
C            0.69258700000000        0.17760700000000        4.55081200000000
C           -0.49850100000000       -0.36627900000000        4.08848400000000
C           -0.70668800000000       -0.39854100000000        2.71383200000000
C           -1.98695500000000       -0.92077000000000        2.10394900000000
C           -1.50955800000000       -1.50876500000000        0.83988100000000
C           -0.41587400000000       -2.29806000000000        0.90398000000000
C            0.02150000000000       -2.50114300000000       -0.42255500000000
C           -0.92462800000000       -1.88442500000000       -1.30638200000000
C           -1.83084600000000       -1.24916200000000       -0.54478000000000
H            1.66914000000000        2.85417300000000        2.02904400000000
H            2.39699100000000        1.76138800000000        0.82482700000000
H            1.07459600000000        2.06533000000000       -1.40872300000000
H           -1.43592500000000        1.84793800000000       -2.19850400000000
H           -3.01541200000000        1.61966800000000       -0.10448600000000
H           -1.47357500000000        2.27705400000000        2.01599900000000
H            2.37803900000000        1.39507800000000        3.99990000000000
H            0.89812500000000        0.21920200000000        5.61651400000000
H           -1.23913300000000       -0.75617600000000        4.77737600000000
H           -2.70589100000000       -0.11173800000000        1.95475400000000
H           -2.45379600000000       -1.68172400000000        2.73912600000000
H            0.12440000000000       -2.65174200000000        1.76872800000000
H            0.93301900000000       -2.99010200000000       -0.72016700000000
H           -0.89303600000000       -1.92596400000000       -2.38247000000000
H           -2.69336600000000       -0.71409100000000       -0.89922300000000
36
 energy: -57.636332796283 gnorm: 0.325706585091 xtb: 6.7.1 (edcfbbe)
Zr          -0.11981570831518       -0.00664399825220        0.00613049948682
Cl          -0.01326313751332        0.00246616754510       -2.12480300612799
Cl           2.08749375196337        0.00296135840685        0.00656362808023
N            0.20769794593607       -0.00892677504811        1.76239351140045
C            1.23245211781559        0.75415536502019        2.28436712815568
C            1.52297326483680        1.95962080406718        1.43149300890483
C            0.28597064481663        2.14022599445717        0.62390886956958
C            0.24978792624235        2.11533453507425       -0.77322703740128
C           -1.13463568182538        1.90922676200091       -1.19998082474194
C           -1.97768168442258        1.74498099559043       -0.09336474088059
C           -1.12223240194714        1.98483747142169        1.06409706659148
C            1.58705417446942        0.79624117100030        3.65903986286583
C            0.70485195898680        0.17237602553523        4.58704227293195
C           -0.51944578888711       -0.37773913408490        4.11904412505544
C           -0.71990108676035       -0.40299615911317        2.72034661771145
C           -2.00867285462779       -0.91521865973610        2.11705151114655
C           -1.55071365014771       -1.51204107710476        0.85015766879675
C           -0.40192379158018       -2.31755475439151        0.92627979772328
C            0.04381101113087       -2.51388335318604       -0.43360815597439
C           -0.91514946121582       -1.89020773530602       -1.34191417249837
C           -1.87188721688666       -1.23864033559302       -0.55018071050977
H            1.67905388941112        2.89094765368708        2.05510017073312
H            2.43625412784603        1.75570816610533        0.79817246449872
H            1.12201298481508        2.06325689467235       -1.44993305960966
H           -1.45096081140147        1.84436017580139       -2.25887772556362
H           -3.07653216522335        1.61038281561723       -0.10121284629506
H           -1.49149220207409        2.29042042836720        2.06845118213209
H            2.42540802025041        1.42882725116221        4.01977456097533
H            0.91045775043603        0.22150498456173        5.67731389592869
H           -1.28146610943566       -0.77817573301251        4.81808189896558
H           -2.73979133490355       -0.07499338606435        1.95010058624782
H           -2.47662157690061       -1.71246838395554        2.76762911697732
H            0.15552610141084       -2.67108316709074        1.81691998207936
H            0.98410107994519       -3.01557638015530       -0.73717715117860
H           -0.88857009462566       -1.93006431639803       -2.44596738342604
H           -2.74688599161895       -0.68159867160151       -0.91998161275105
36
 energy: -57.592898874456 gnorm: 0.220808247506 xtb: 6.7.1 (edcfbbe)
Zr          -0.15660773135819       -0.00567296137913       -0.04824264668904
Cl          -0.00795055421713        0.00483700977828       -2.21251356166264
Cl           2.11256200730176        0.00933013794439        0.00500370728126
N            0.23173987875155       -0.04048302978069        1.78807948486226
C            1.27491154995461        0.74170910211326        2.26821162873243
C            1.56109437010316        1.97592234707981        1.43287877136856
C            0.29917217706855        2.17992048585116        0.65195449149121
C            0.27495642888522        2.15117412108456       -0.81340862910521
C           -1.13903610632154        1.91395433639468       -1.24368452500401
C           -2.01787739998166        1.72150750733672       -0.08311943947201
C           -1.12995321927202        1.97286224734053        1.10041728556983
C            1.63694804629686        0.80577477386631        3.68053784397349
C            0.72229695142905        0.16329787662465        4.63495332771868
C           -0.54860089155064       -0.39217908045146        4.15776400748122
C           -0.73568530459273       -0.40908699066247        2.71558599297367
C           -2.04858036283719       -0.90806198345615        2.13592438957628
C           -1.60552750179447       -1.53045375200549        0.86006379997056
C           -0.38478945509880       -2.34084184885593        0.95758462797507
C            0.07405755190411       -2.53092839083500       -0.44738864812622
C           -0.90958314809891       -1.90082334814653       -1.38925583343272
C           -1.93142142909061       -1.23902655392325       -0.56753557405491
H            1.69440099610680        2.94278034670878        2.09041656754137
H            2.49260734831866        1.74613365901067        0.75766876759612
H            1.18869869310979        2.05890312436617       -1.50128183415230
H           -1.47363898657151        1.83788054920465       -2.33837108755972
H           -3.15905584408510        1.59774475290745       -0.10073762972911
H           -1.51633699994400        2.30803779262239        2.13767724781113
H            2.49067428460598        1.47796694494935        4.04893459325415
H            0.92602529633586        0.22545507756044        5.76216835026208
H           -1.34186139255541       -0.80856284869455        4.87244152023292
H           -2.78757558278778       -0.02355151279228        1.94071983448788
H           -2.50867367414777       -1.75503416927633        2.80723906186120
H            0.19690449095441       -2.69387962221554        1.88386484271253
H            1.05326010608735       -3.04886485770441       -0.75916113679086
H           -0.88227275356032       -1.93112865744388       -2.53268117999011
H           -2.81801783934795       -0.63658958512115       -0.95347741896505
36
 energy: -57.451646617338 gnorm: 0.159498857642 xtb: 6.7.1 (edcfbbe)
Zr          -0.18276522298029        0.00191607228930       -0.08721601140944
Cl          -0.00444029174598        0.00865813731504       -2.30319271363145
Cl           2.14648259785612        0.01578669698926        0.01082503892083
N            0.26392314611502       -0.08631526584830        1.79989422122215
C            1.33072667687817        0.72240020499943        2.24248701460941
C            1.61237182621859        1.99890795373755        1.43114563260807
C            0.30921429102051        2.22795598496618        0.67822478682236
C            0.30292459697978        2.19307582498902       -0.85199879496251
C           -1.14866909178052        1.91821687099094       -1.28594052883948
C           -2.06148685554952        1.68974131310633       -0.07367537969306
C           -1.14145791605841        1.94952907252115        1.14254000140666
C            1.69081419332852        0.81596399833543        3.70097481790106
C            0.74166223302573        0.15026084782645        4.68147489270942
C           -0.58320461601868       -0.40604903636514        4.19961417866440
C           -0.75751985159144       -0.41335718594941        2.70926147602597
C           -2.10366925303718       -0.89888791546942        2.16045406115158
C           -1.66435721905072       -1.55840321144503        0.86868332729752
C           -0.36440720250482       -2.35861925836281        0.99412620768999
C            0.10754689952279       -2.54337081862099       -0.45988762118366
C           -0.90586718823816       -1.90875512532085       -1.43898927014969
C           -1.99993003698738       -1.24655420384422       -0.59158366819968
H            1.70630880510085        2.99933650405372        2.12833683546188
H            2.55447640938462        1.73386464375653        0.71030326951309
H            1.25847760814077        2.04579190427671       -1.55036438934703
H           -1.49925253374448        1.82912558524945       -2.41890378312875
H           -3.24685693981767        1.58734207876996       -0.10311566824884
H           -1.54385070778419        2.32883498887998        2.20915360409446
H            2.55787167165901        1.53294274664833        4.07826346298756
H            0.94152707501059        0.23100636016494        5.84928251865587
H           -1.40715898313688       -0.84178642759875        4.93057169346798
H           -2.83903912568831        0.03519872983623        1.92698814605263
H           -2.54095541439628       -1.80485757002193        2.84965969192102
H            0.24072111127495       -2.71471568035999        1.95587028323666
H            1.12420677397917       -3.08171921367711       -0.78096287412030
H           -0.87718600221593       -1.92888522647815       -2.62298641480052
H           -2.88991746316836       -0.58355738033983       -0.99008704470616
36
 energy: -57.236765850705 gnorm: 0.118463493971 xtb: 6.7.1 (edcfbbe)
Zr          -0.20662414990022        0.00996660823611       -0.11992627818051
Cl          -0.00535911962112        0.01261292874576       -2.38733878432413
Cl           2.17982712313173        0.02317596554992        0.01596990686497
N            0.30450079582401       -0.14675641232170        1.80562207382482
C            1.39577883835800        0.69741775692600        2.21271755895256
C            1.67071346151122        2.02633404984752        1.42679634830173
C            0.31471940208899        2.27851785729393        0.70188087136426
C            0.33092205157345        2.23662022197938       -0.88832969091540
C           -1.16097838407866        1.92290281667807       -1.32542502617666
C           -2.10495177859697        1.65338161928651       -0.06545910824521
C           -1.15522879744983        1.91519602407779        1.18753215058078
C            1.74398871993645        0.82786818382913        3.72114835393457
C            0.76213179028482        0.13400294707868        4.72567936152855
C           -0.62025456655489       -0.41731617852611        4.24309429958372
C           -0.78214169220599       -0.41277078133219        2.70427900300287
C           -2.16932047786766       -0.88753270485503        2.18679988189159
C           -1.72025874112057       -1.58941577883937        0.87537721527248
C           -0.34133524342973       -2.36971853037139        1.03204880527492
C            0.14232240767512       -2.55124917853637       -0.47091179698411
C           -0.90295477465160       -1.91462385913996       -1.48772632138477
C           -2.06867516646690       -1.25612113052191       -0.61928988963289
H            1.71426527707217        3.05616180584704        2.16655002090912
H            2.61676845348439        1.71948269737769        0.66022762715236
H            1.32569261134281        2.02716074306007       -1.59630810199023
H           -1.52388779319206        1.81949562285877       -2.49725177958270
H           -3.33466280494697        1.57978011460661       -0.10714593126736
H           -1.57139008503373        2.35111519693977        2.27893932410365
H            2.62349863081703        1.59013250736193        4.10767897796511
H            0.95591977789493        0.23769837690063        5.93515060562079
H           -1.47346374757754       -0.87586778949347        4.98945080657841
H           -2.89050741420147        0.09826498546090        1.90921540246579
H           -2.57142508669555       -1.85745034653038        2.89069867124981
H            0.28458597803744       -2.73450349435097        2.02814038954551
H            1.19368790482798       -3.11379077764946       -0.80234592947848
H           -0.87193756927719       -1.92495948298991       -2.71189129023491
H           -2.95670183099188       -0.52518958448398       -1.02641672757103
36
 energy: -56.965892101396 gnorm: 0.089249037701 xtb: 6.7.1 (edcfbbe)
Zr          -0.22832653285049        0.01684478829449       -0.14544962782219
Cl          -0.00848137571375        0.01590269313561       -2.46363813993029
Cl           2.21151785718305        0.03158906532020        0.01938873869642
N            0.35302176905381       -0.22131142273763        1.80842955593024
C            1.46690858441673        0.66809273887359        2.17955636733800
C            1.73189693599546        2.05672668326724        1.41987648155205
C            0.31591884208163        2.32806491902177        0.72408236160904
C            0.35821957829470        2.27907416579481       -0.92210249370002
C           -1.17507300752094        1.92847342591835       -1.36211254633349
C           -2.14800278495659        1.61445949605351       -0.05797991549729
C           -1.17016728777745        1.87050259536002        1.23518149470060
C            1.79479528834846        0.84242447486263        3.74011144229760
C            0.78371347412967        0.11444208156439        4.76688368206099
C           -0.65884324623527       -0.42533639274483        4.28611478897626
C           -0.80811960585591       -0.40506933889944        2.69854188360882
C           -2.24272465061067       -0.87407663302913        2.21300443499265
C           -1.77184707814148       -1.62029434183158        0.88096829483456
C           -0.31666075707760       -2.37513879310038        1.07052655228929
C            0.17751709819754       -2.55514331192186       -0.48078223548073
C           -0.90120250159577       -1.91907666980818       -1.53494350711748
C           -2.13597976713752       -1.26558727220317       -0.64905951858037
H            1.71806935969134        3.11159839328378        2.20429159496346
H            2.67771789048732        1.70395891418770        0.60930686136520
H            1.38964099114055        2.00467036212896       -1.63955634832708
H           -1.54693129227424        1.80919840637695       -2.57333715198094
H           -3.42269199642900        1.57488338059836       -0.11193805860239
H           -1.59851896586034        2.37495712035191        2.34759512428656
H            2.68750404628902        1.64848122800294        4.13631517941965
H            0.96919660121194        0.24499081605260        6.01886726357595
H           -1.54009251072959       -0.91062735824890        5.04729687735803
H           -2.94095089252770        0.16532346616284        1.88764094028513
H           -2.59932764134174       -1.91132874270704        2.92991262808068
H            0.32835242342985       -2.75413920540476        2.10088813073194
H            1.26213914125825       -3.14534000713292       -0.82386556609096
H           -0.86645906613728       -1.91971679819172       -2.79902133179499
H           -3.01846492043600       -0.46244992665109       -1.06176323769491
36
 energy: -56.652917227389 gnorm: 0.067959647938 xtb: 6.7.1 (edcfbbe)
Zr          -0.24675847886316        0.01892325339874       -0.16288156714575
Cl          -0.01110378256644        0.01755706691703       -2.53160027336443
Cl           2.24248276567028        0.03993432788772        0.02138966592399
N            0.40787832855847       -0.30843344932369        1.81013569880892
C            1.54113814101620        0.63571818536744        2.14298335492381
C            1.79327975123532        2.08905148482068        1.41103657630408
C            0.31314434190807        2.37409614779912        0.74603748143039
C            0.38435749700484        2.31903665020063       -0.95323739210819
C           -1.19116571374753        1.93562562862451       -1.39622804293564
C           -2.19138578387141        1.57411452327641       -0.05069774393011
C           -1.18578046487214        1.81620925271302        1.28563727990453
C            1.84221370553269        0.85998986227233        3.75674590457673
C            0.80637928950482        0.09152909515029        4.80450713584444
C           -0.69832221467408       -0.43002727445453        4.32694565333866
C           -0.83417273796572       -0.38939278351011        2.69002668526836
C           -2.32113725830013       -0.85863652137634        2.23874619749613
C           -1.81892653179878       -1.64909551719854        0.88614314858802
C           -0.29063897646499       -2.37461492780304        1.10893545601955
C            0.21301941317267       -2.55472648322943       -0.48988692485038
C           -0.90110364382340       -1.92306941017227       -1.58077267037246
C           -2.20141232780703       -1.27380988975359       -0.67996225064127
H            1.71755692839135        3.16556578698472        2.24221536803081
H            2.73717326793636        1.68781886042105        0.55909435736865
H            1.45163359551322        1.97804673923063       -1.68151096102339
H           -1.56895473329545        1.79817020763075       -2.64794316573811
H           -3.51284238907986        1.57265762357810       -0.11695409091837
H           -1.62586394610921        2.40177056139554        2.41647270145210
H            2.75005855318610        1.70715217337124        4.16341995930936
H            0.98145363720789        0.25253164292686        6.09988938431348
H           -1.60652616248337       -0.94596692824291        5.10294227118276
H           -2.98968602682568        0.23770209644032        1.86247069210522
H           -2.62406937392187       -1.96742624085084        2.96854934936188
H            0.37197039693311       -2.77330318062742        2.17360205207718
H            1.33016344233324       -3.17631154911585       -0.84587592751055
H           -0.86091530083938       -1.91370300022907       -2.88483962684062
H           -3.07587320779501       -0.39466101451947       -1.09630473624978
36
 energy: -56.311276983701 gnorm: 0.051098238320 xtb: 6.7.1 (edcfbbe)
Zr          -0.26275898949470        0.01289685724866       -0.17106661673516
Cl          -0.01020485849802        0.01659940253102       -2.59035833051259
Cl           2.27213042799665        0.04264679831020        0.02001383566449
N            0.46651467613686       -0.40456753069032        1.81190310668011
C            1.61602210086552        0.60180709070846        2.10339395594888
C            1.85408280056674        2.12418820980995        1.40210068663191
C            0.30668993110457        2.41508848129171        0.76881895266416
C            0.40907341451995        2.35317460133381       -0.98141296953231
C           -1.20963051873543        1.94471663085712       -1.42734832464040
C           -2.23513894188344        1.53124677601406       -0.04251511314511
C           -1.20172569240864        1.75236767534298        1.33849239973860
C            1.88582981563320        0.88016328005851        3.77036512204512
C            0.82999824530217        0.06543471136230        4.83823740855728
C           -0.73793176855212       -0.43163664993199        4.36432707454168
C           -0.85881299255424       -0.36620871113181        2.67754997624101
C           -2.40124458717122       -0.84084992818133        2.26363389280879
C           -1.86230369801225       -1.67519454747363        0.89119791923327
C           -0.26318008261882       -2.36676577557989        1.14621053091916
C            0.24916885197182       -2.54783107522863       -0.49833895925252
C           -0.90297680399749       -1.92744764528873       -1.62543409014806
C           -2.26535119761837       -1.28050352399144       -0.71160690395347
H            1.71076153922763        3.22345827914453        2.28559028187026
H            2.79758351912599        1.67043165026971        0.50871900878201
H            1.51133212296129        1.94638989091860       -1.72250797923736
H           -1.59098369331027        1.78556650604697       -2.72276038489858
H           -3.60502637372498        1.57216720288922       -0.12105972267286
H           -1.65329995022791        2.43045142391054        2.48417418578795
H            2.81145939937896        1.76520190750208        4.18879512964441
H            0.99273367904206        0.26033302871383        6.17803008811724
H           -1.67228621300193       -0.98157581780064        5.15556538460235
H           -3.03500781442795        0.31520625890491        1.83452014045361
H           -2.64475963183015       -2.02458722707188        3.00661439949815
H            0.41467593346227       -2.79046750760324        2.24409976700147
H            1.39655516993621       -3.20488288522100       -0.86782244972712
H           -0.85517362570093       -1.90745042236210       -2.97006285373145
H           -3.12955019346302       -0.31954441561247       -1.13082754924490
36
 energy: -55.966429525178 gnorm: 0.040501914320 xtb: 6.7.1 (edcfbbe)
Zr          -0.27820856634640        0.00250720581185       -0.16966755543432
Cl          -0.00637817268496        0.01651141398568       -2.63808155136165
Cl           2.29735458342906        0.05045411215875        0.01658392513802
N            0.52504525006250       -0.50414599665171        1.81419601164877
C            1.68852335374136        0.56708539688450        2.06264802425454
C            1.91266927590819        2.15595624594773        1.39092398250766
C            0.29738470431348        2.44706044125710        0.79130309242315
C            0.43112714662505        2.37671521962784       -1.00595845854395
C           -1.22949850295617        1.95070413375930       -1.45378437527501
C           -2.27713675542721        1.48428036201462       -0.03280089798623
C           -1.21739171531770        1.68100787584801        1.39130653809084
C            1.92519159388536        0.90139578828446        3.78084081967920
C            0.85428326826449        0.03613305145087        4.86773431780831
C           -0.77648379209789       -0.43068254370103        4.39719809011935
C           -0.88123731853431       -0.33750549575933        2.66141299369497
C           -2.47926582067063       -0.82050656074046        2.28636808565556
C           -1.90237143153922       -1.69771641705730        0.89568227120587
C           -0.23551315539616       -2.35191609957843        1.18082490050497
C            0.28532749694735       -2.53333658075376       -0.50609561187623
C           -0.90719797371156       -1.93154134565579       -1.66783215909313
C           -2.32480072925278       -1.28278990038871       -0.74323070741158
H            1.70024258560752        3.27680045934318        2.32761227000553
H            2.85682227922152        1.65475374696886        0.46380502861441
H            1.56582305805064        1.90899783077707       -1.76181762668376
H           -1.61243877530325        1.76863664953395       -2.79543381292837
H           -3.69479201315000        1.57214101707101       -0.12289093717854
H           -1.68036664230844        2.46144377482758        2.54817064163186
H            2.87130964149278        1.82145153094914        4.21247563811883
H            1.00269693193027        0.26890220462394        6.25318716276597
H           -1.73647051220883       -1.01683736281423        5.20436888310821
H           -3.07470757751747        0.39504974670335        1.80541993988669
H           -2.66271965351734       -2.07709047268482        3.04167861971120
H            0.45591723792529       -2.80393615175222        2.31123736792829
H            1.46036764219541       -3.22988427542532       -0.88949788616655
H           -0.84938519705834       -1.89988790434674       -3.05440185785941
H           -3.17645774460159       -0.24018810051886       -1.16425416670350
36
 energy: -55.628201423255 gnorm: 0.030041252745 xtb: 6.7.1 (edcfbbe)
Zr          -0.29389294901783       -0.01035188728079       -0.15949608373615
Cl          -0.00129185600337        0.02161072126963       -2.67589987012022
Cl           2.31819404568874        0.06063905218395        0.00736016130402
N            0.58371413512077       -0.60643354239972        1.81667899570182
C            1.75933601768114        0.53176682189791        2.02092394056517
C            1.96747755540939        2.18546090017827        1.37798768145049
C            0.28387855083413        2.46705101670831        0.81435032102469
C            0.44952281510962        2.38868696545002       -1.02598562902549
C           -1.25086264724520        1.94805417673990       -1.47465294363245
C           -2.31902272266721        1.43275461691849       -0.02066194390986
C           -1.23413297172684        1.60609224208582        1.44535474178804
C            1.96181065288069        0.92342194788573        3.78903708897759
C            0.88052550451963        0.00161007722662        4.89396294974376
C           -0.81408427163029       -0.42816949249924        4.42582485746238
C           -0.90091588405049       -0.30509971681838        2.64110777410490
C           -2.55467475563798       -0.79814752247850        2.30719119761752
C           -1.93902541356618       -1.71759463496632        0.89975689415003
C           -0.20800356030773       -2.33276852555911        1.21337790096251
C            0.32314619782018       -2.51235587780531       -0.51285693051550
C           -0.91356036558055       -1.93710258705314       -1.70850933674892
C           -2.37996691348857       -1.28105612045840       -0.77427581846726
H            1.68839790827759        3.32540608648322        2.36447577387107
H            2.91396903241453        1.64067742834327        0.42244208797982
H            1.61603838198427        1.86257545490597       -1.79924423051683
H           -1.63321626342632        1.74545499282664       -2.86434084787098
H           -3.78803669214743        1.57721256720064       -0.12249994863216
H           -1.70728438106926        2.49129750060943        2.60940168754039
H            2.93122571323851        1.88027184119620        4.23653410734254
H            1.01068612351771        0.28040216016512        6.32913270505890
H           -1.80137378797953       -1.05475636184312        5.25082606069080
H           -3.10656464126686        0.48116432768253        1.77155625332415
H           -2.68148431781426       -2.12169990899359        3.07298281383829
H            0.49821899006328       -2.81362585774397        2.37809622308545
H            1.52542888584314       -3.25387385392814       -0.91110156292025
H           -0.84186545078748       -1.88957469332601       -3.14284074785888
H           -3.21504666498993       -0.14897731480383       -1.19676532362940
36
 energy: -55.341017359211 gnorm: 0.022306760246 xtb: 6.7.1 (edcfbbe)
Zr          -0.30458937588502       -0.02796273359185       -0.14303651519050
Cl           0.00593329806549        0.02212842311494       -2.70049712628708
Cl           2.33604468683662        0.06915475031418       -0.01182924435250
N            0.64062854852440       -0.70268336970448        1.81886050527012
C            1.82633976974849        0.49771601965922        1.98346470466052
C            2.01540755563928        2.21047389495502        1.36479072002367
C            0.26699206748173        2.47001467663265        0.83653139581246
C            0.46139679262752        2.38287623684274       -1.03976500645379
C           -1.27418285253567        1.93094385507030       -1.48765770726100
C           -2.35977440542956        1.37592906193431       -0.00547063033248
C           -1.25240389963719        1.53119347728426        1.49758364538548
C            1.99347603864275        0.94450467928969        3.79699267921235
C            0.90474347197394       -0.03238656696396        4.91606813542770
C           -0.84855908232836       -0.42099808306040        4.44766131134064