36
 energy: -57.508986732381 gnorm: 0.628876495067 xtb: 6.7.1 (edcfbbe)
Zr           0.00000000000000        0.00000000000000        0.00000000000000
Cl           0.00000000000000        0.00000000000000       -1.93900000000000
Cl           1.93900000000000        0.00000000000000        0.00000000000000
N            0.37605400000000       -0.00691500000000        1.68042200000000
C            1.33617800000000        0.86802200000000        2.15473600000000
C            1.35328500000000        2.12627200000000        1.34891900000000
C            0.08945700000000        2.10956900000000        0.57128300000000
C            0.00681800000000        2.15064700000000       -0.75914000000000
C           -1.34693000000000        1.83887100000000       -1.15130200000000
C           -2.10373500000000        1.58558600000000       -0.07378100000000
C           -1.25479600000000        1.78965600000000        1.05763200000000
C            1.96366500000000        0.83109800000000        3.40163800000000
C            1.47594700000000       -0.04982200000000        4.35719600000000
C            0.35131600000000       -0.80280500000000        4.05630700000000
C           -0.16143200000000       -0.72788600000000        2.76344300000000
C           -1.41809500000000       -1.44547700000000        2.37719400000000
C           -1.25131500000000       -1.66413500000000        0.92977900000000
C           -1.98143500000000       -1.31256500000000       -0.13221000000000
C           -1.23957400000000       -1.78506900000000       -1.26482800000000
C           -0.02016500000000       -2.40905700000000       -0.82860400000000
C           -0.01671400000000       -2.32474000000000        0.49894800000000
H            2.24043800000000        2.14220500000000        0.70743200000000
H            1.37417500000000        3.00877400000000        1.99826400000000
H            0.81772500000000        2.28079700000000       -1.45511000000000
H           -1.68392200000000        1.81901400000000       -2.17705900000000
H           -3.16169200000000        1.38047100000000       -0.04925200000000
H           -1.57810100000000        1.85444900000000        2.08371700000000
H            2.72964100000000        1.55316600000000        3.66302700000000
H            1.90784700000000       -0.07984200000000        5.35293900000000
H           -0.11685000000000       -1.42872700000000        4.80798900000000
H           -1.51498300000000       -2.39833600000000        2.90882900000000
H           -2.29221400000000       -0.82574000000000        2.60231300000000
H           -2.95656500000000       -0.86422100000000       -0.15089300000000
H           -1.57994400000000       -1.74636300000000       -2.28733100000000
H            0.73130300000000       -2.84793500000000       -1.46315900000000
H            0.76160800000000       -2.69699400000000        1.14627900000000
36
 energy: -57.688284662706 gnorm: 0.326240527844 xtb: 6.7.1 (edcfbbe)
Zr          -0.13424386023244       -0.00600353763261        0.00292169109727
Cl          -0.01142183792944        0.00222279735647       -2.12628567657056
Cl           2.07970246988905        0.00275049882439        0.01084571628632
N            0.37512013111904       -0.01512590393199        1.72501379039540
C            1.35125456095183        0.86684237375439        2.14562200109360
C            1.37040816784397        2.13764751025111        1.35205337851454
C            0.09439647184854        2.13770373116982        0.60030552405106
C            0.01981761568025        2.16954067055318       -0.79364612843615
C           -1.34630936896189        1.83937004935838       -1.18800395326679
C           -2.13357119145448        1.57006839474627       -0.06186610554943
C           -1.26056869616112        1.78919407870050        1.08465824934976
C            1.99693865500062        0.84488437282743        3.41037917712952
C            1.49646631466970       -0.05550029981657        4.38974023585091
C            0.34157517911500       -0.82282041018805        4.08737501537234
C           -0.17119137313702       -0.73492235667686        2.77305128113757
C           -1.43449242536413       -1.45023534974449        2.39849768234764
C           -1.26054292390799       -1.68302973432722        0.95748219803648
C           -2.01873828753631       -1.30232107101602       -0.14848896074586
C           -1.24596204643384       -1.77794304112750       -1.29324220902162
C           -0.00416897465136       -2.41639265524511       -0.85933623135522
C           -0.00448378400261       -2.33428571588124        0.53230072279424
H            2.27806774656183        2.14370846071226        0.67904612791766
H            1.37859745369915        3.04556206682280        2.02620220425529
H            0.86335797506879        2.28742195352695       -1.49709125975958
H           -1.70095591548276        1.81739291780243       -2.23623619627004
H           -3.22149820467711        1.36766657693171       -0.04475825367660
H           -1.59463945922835        1.85703927176940        2.13994943962085
H            2.77298017762231        1.59306303609809        3.67678194430707
H            1.93307224435123       -0.08143302621693        5.40949392843137
H           -0.14287732333216       -1.46412512212219        4.85148973202756
H           -1.52159894832411       -2.43929970421895        2.93470963535846
H           -2.33134822172036       -0.79978006659518        2.61368266419175
H           -3.01586741201433       -0.83734849833006       -0.15591419544734
H           -1.59790092916055       -1.74352461681594       -2.34394142440181
H            0.77286582700326       -2.87057062389699       -1.50194883017236
H            0.80375519328779       -2.71544902742166        1.18577408510670
36
 energy: -57.645559547758 gnorm: 0.220164818568 xtb: 6.7.1 (edcfbbe)
Zr          -0.18415176280408       -0.00729162260790       -0.05808108645614
Cl          -0.00357313189778        0.00514470001333       -2.21530504602101
Cl           2.09745908433852        0.00816681364779        0.00689658559129
N            0.38579906534544       -0.02668686488566        1.73874285837827
C            1.38082510097308        0.86486009016473        2.12403810510402
C            1.40536928335157        2.16347174781407        1.35304977151334
C            0.10168610323634        2.18087478406703        0.62852429368420
C            0.04085106419640        2.20272967079988       -0.83314549192907
C           -1.35227369900834        1.83957075816192       -1.23195013101665
C           -2.17269359211023        1.54585598206513       -0.05188146860392
C           -1.26961664819899        1.78507058307177        1.12057096520395
C            2.04513726253015        0.86324670359565        3.42303106524131
C            1.52534665105000       -0.06452681231749        4.43347539310792
C            0.32724611764779       -0.84971506632445        4.12898785699283
C           -0.18472075788368       -0.74638583176714        2.77348095403974
C           -1.46922132330459       -1.45975017245496        2.43058979546274
C           -1.28312645448238       -1.71434528687945        0.98313753337143
C           -2.07253540199876       -1.29353333177571       -0.16825340217802
C           -1.25591225710504       -1.77285254076791       -1.33181679987455
C            0.02151317283199       -2.42912816337338       -0.89409921867347
C            0.01597009622779       -2.34993315436309        0.56722589804891
H            2.33386288871715        2.14724687156207        0.63701982996999
H            1.38581254784287        3.09819778467038        2.06492129403071
H            0.92863941325227        2.29545182624369       -1.55129054587977
H           -1.72674026159724        1.81367820013286       -2.31530777663771
H           -3.30315303908497        1.35049529333510       -0.04259146970430
H           -1.61738121212251        1.85935931115376        2.21565061507196
H            2.83322525976341        1.65072309390880        3.69785660389477
H            1.96721106390312       -0.08314344523773        5.49027703977573
H           -0.18150074150422       -1.51380568734998        4.91179859123610
H           -1.53253437391987       -2.49728400267617        2.97033284350655
H           -2.38870697341250       -0.76220389380982        2.62852312918440
H           -3.09757824440230       -0.79848859278962       -0.16015581637843
H           -1.62067259348959       -1.73948859483080       -2.42177538212377
H            0.83270896561403       -2.90256775358328       -1.55135099354739
H            0.86342432750514       -2.74104539661341        1.23549060661405
36
 energy: -57.507481940345 gnorm: 0.158907789054 xtb: 6.7.1 (edcfbbe)
Zr          -0.22033167513551       -0.00160672742519       -0.10813718652894
Cl           0.00383164957196        0.00892050620555       -2.31271555230755
Cl           2.12592454730139        0.01366899161795        0.01164930197036
N            0.39461396112952       -0.03984104185536        1.73664285872280
C            1.42061826875616        0.85835703388423        2.09150882327062
C            1.45315964175935        2.19907956731023        1.35109632926389
C            0.10463587904080        2.23148548932289        0.65579352639409
C            0.06447903038782        2.24046628236402       -0.87103028545796
C           -1.36296516338851        1.83727262219888       -1.27475803752098
C           -2.21507678782017        1.51407635638425       -0.04289549885806
C           -1.28210663158869        1.77348490303237        1.16157126581516
C            2.09776517659305        0.88297012468538        3.43418815147913
C            1.55651335352783       -0.07616837090496        4.47560310260299
C            0.30961775413583       -0.87918507077575        4.17463434369497
C           -0.20245041602479       -0.76145676772529        2.77241052313124
C           -1.52046821424485       -1.47213945827677        2.47268088388881
C           -1.31346877860464       -1.75040506068470        1.00366766869660
C           -2.13551390015099       -1.28581592373830       -0.18757373816879
C           -1.26703546560057       -1.76725391957970       -1.37220049690966
C            0.05237444409441       -2.43908218359579       -0.92728059402861
C            0.04327589440658       -2.36196766803895        0.60103687120856
H            2.39593697487946        2.14833992149849        0.58707873187831
H            1.38925985338825        3.15513310978745        2.10730163214557
H            0.99877885799943        2.29669071516183       -1.60441471212300
H           -1.75554936436877        1.80860128771944       -2.39588086271329
H           -3.39065782262473        1.33554911196249       -0.04280427433134
H           -1.64281225022481        1.86236032082373        2.29620042054490
H            2.89537236016119        1.71435373104006        3.71944476740662
H            2.00191958258643       -0.08373627035427        5.57414683506501
H           -0.22376233584368       -1.56799785538442        4.97636618635568
H           -1.54176014337740       -2.56350760196556        3.00681362455539
H           -2.45378363700052       -0.71675823408365        2.64347108877827
H           -3.18478946389319       -0.75414324584146       -0.15947432701664
H           -1.64474474099887       -1.73529042433690       -2.50237254315437
H            0.89633728669009       -2.93582497059124       -1.60018682457520
H            0.92885727448114       -2.76666127984097        1.28503499682542
36
 energy: -57.298766678146 gnorm: 0.117991889744 xtb: 6.7.1 (edcfbbe)
Zr          -0.24854546393999        0.00556417401837       -0.15478354532916
Cl           0.00656425804114        0.01238079886361       -2.40608437285832
Cl           2.15779327026915        0.01933195054308        0.01623379658965
N            0.40329373644333       -0.05454399760829        1.72693591493846
C            1.47002288596032        0.84736820906226        2.05333700549218
C            1.50835822382697        2.24137119611390        1.34703302233721
C            0.10335169975367        2.28396222715356        0.68086271934079
C            0.08819709481148        2.28044269951340       -0.90662525158610
C           -1.37622432886453        1.83573294237350       -1.31512324128142
C           -2.25722935041023        1.47859484502870       -0.03548786580516
C           -1.29628071801679        1.75420044461733        1.20405429612020
C            2.15091908179796        0.90373492928165        3.44564099171304
C            1.58831340200263       -0.08939833469895        4.51545178187968
C            0.29046354122604       -0.90865995897789        4.22339970647884
C           -0.22135841438392       -0.77992280844851        2.77366866643333
C           -1.58331680679028       -1.48646227399556        2.52008204732481
C           -1.34552120818313       -1.78589621412574        1.01848325152949
C           -2.20052524622317       -1.27881528582321       -0.20706251096455
C           -1.27916853743552       -1.76420677215422       -1.41232786677153
C            0.08526644491890       -2.44626496377330       -0.95774750836573
C            0.07576696824042       -2.36759765824829        0.63278439858878
H            2.45930288311548        2.14730171055262        0.53376755302441
H            1.38885487774158        3.21208419884586        2.15088503321211
H            1.06784184530013        2.29284831235265       -1.65531053193213
H           -1.78336384751714        1.80345069510210       -2.47479207862143
H           -3.47846008196036        1.32403084169987       -0.04458825731682
H           -1.66842906471010        1.86603094485497        2.37672892242040
H            2.95641827236473        1.77990882879404        3.74184203478196
H            2.03514720399580       -0.08309132286867        5.65766826676523
H           -0.26692887949649       -1.62344053715737        5.04271056207778
H           -1.54867276843107       -2.63287725377258        3.04103380022507
H           -2.52140144241418       -0.66649091558644        2.65667327560236
H           -3.27074578565712       -0.70722890727042       -0.15680105507864
H           -1.66803819115841       -1.73147869194604       -2.58214874987429
H            0.95931797118147       -2.96889641470151       -1.64743949804134
H            0.99501147460123       -2.79109963761447        1.33366228695087
36
 energy: -57.036744253890 gnorm: 0.088477495388 xtb: 6.7.1 (edcfbbe)
Zr          -0.26970064900628        0.01245286813940       -0.19766888678098
Cl           0.00622487687838        0.01519385883708       -2.49440085734163
Cl           2.19156069213657        0.02445527611894        0.01793408943162
N            0.41191988211396       -0.06996832427971        1.71353082633259
C            1.52768059276521        0.83262441409428        2.01036094894896
C            1.56704232811041        2.28821685051191        1.34139237335878
C            0.09904090384045        2.33497555855711        0.70449796404281
C            0.11141207584056        2.32107084013399       -0.93991268471171
C           -1.39161120764466        1.83708336024269       -1.35322506765074
C           -2.29892834055348        1.44113531251636       -0.02935130592977
C           -1.31093306317595        1.72701670881017        1.24739312960594
C            2.20297335660449        0.92606330299402        3.45715423436576
C            1.62035530041767       -0.10399428637287        4.55251607142032
C            0.26988065024608       -0.93739208729504        4.27418260843902
C           -0.24117173050033       -0.80163746910378        2.77666889373822
C           -1.65473307283063       -1.50219070916174        2.56989878388578
C           -1.37673893666880       -1.81840676024293        1.02932667892699
C           -2.26513730014674       -1.27150540422952       -0.22653170275936
C           -1.29297231595072       -1.76493159156405       -1.45175634329208
C            0.11899694256437       -2.45076330194436       -0.98552564635649
C            0.11222720897833       -2.36640382836478        0.66336999616901
H            2.52208682337592        2.14427152057653        0.47877875267993
H            1.38445210423774        3.26783034970143        2.19510621154222
H            1.13489822591922        2.28444595676969       -1.70447449273005
H           -1.80959510824835        1.79816541003383       -2.55228193100215
H           -3.56674359844827        1.31614916571930       -0.04727134122887
H           -1.69369039373105        1.87072490253767        2.45751170912964
H            3.01626712157964        1.84659569545126        3.76430368066166
H            2.06674302562240       -0.08145352434230        5.73994571528445
H           -0.31069886747834       -1.67984235996775        5.10992720581162
H           -1.55306048496915       -2.70400553953234        3.07242691451781
H           -2.59006005290549       -0.61187560288718        2.66758164914674
H           -3.35445717540623       -0.65813924624804       -0.15268346383847
H           -1.69033316087328       -1.72749307401644       -2.66102257535363
H            1.02139420761143       -3.00154555107224       -1.69362810387687
H            1.06140413969492       -2.81495469112060        1.38254296541294
36
 energy: -56.733166804522 gnorm: 0.066037799080 xtb: 6.7.1 (edcfbbe)
Zr          -0.28474576268685        0.01744945849832       -0.23644355056591
Cl           0.00410454813485        0.01704030734002       -2.57700923704585
Cl           2.22706129883454        0.02670852490573        0.01525157965100
N            0.42059387414983       -0.08532944510237        1.69893113657508
C            1.59204512038495        0.81490989998875        1.96294880224106
C            1.62679489735628        2.33828099780759        1.33524069216902
C            0.09266101543035        2.38242372857924        0.72755198781915
C            0.13381626181088        2.36143549135862       -0.97110676141895
C           -1.40948271755557        1.84297703755900       -1.38952325326319
C           -2.34074802474595        1.40233422730542       -0.02418656711645
C           -1.32529908932093        1.69184323224945        1.29142834688240
C            2.25284550151627        0.95024006004732        3.46820561729471
C            1.65239755493809       -0.11991315489048        4.58636935577219
C            0.24771532332337       -0.96494276137056        4.32609301720579
C           -0.26185466445125       -0.82626170100873        2.78051678803655
C           -1.73187695700660       -1.51859090660245        2.62038971161787
C           -1.40561241688451       -1.84644690820062        1.03755947997823
C           -2.32787128313514       -1.26265297313328       -0.24591560390966
C           -1.30890767955476       -1.77011892988110       -1.49056432991851
C            0.15318302552811       -2.45222081062184       -1.01106480650286
C            0.15162311206037       -2.35879593595004        0.69358316046631
H            2.58469280598042        2.13891713375328        0.42234016044730
H            1.37514971900480        3.32349714212486        2.24176810304867
H            1.20074313021044        2.27106320570078       -1.75325396851214
H           -1.83462590067288        1.79235042557617       -2.62950527841975
H           -3.65736298810025        1.31229544981792       -0.05049185253954
H           -1.71884820159812        1.87714928567025        2.53988405708729
H            3.07510597885261        1.91386784882669        3.78614101788229
H            2.09673058464730       -0.07906811578825        5.82048352920927
H           -0.35489471480144       -1.73715234845769        5.17752003124487
H           -1.55407434550607       -2.77758210751935        3.10115805048488
H           -2.65933762567889       -0.55171904218622        2.67583801848244
H           -3.43587943953364       -0.60648358504759       -0.14726676557009
H           -1.71156802903463       -1.72275194784422       -2.73965660637444
H            1.08297722808749       -3.03369438291628       -1.73936544699127
H            1.12874386001654       -2.83909040058836        1.43276838455227
36
 energy: -56.401140481643 gnorm: 0.048269586523 xtb: 6.7.1 (edcfbbe)
Zr          -0.29424238260315        0.01877623799556       -0.27007610156013
Cl           0.00240472656065        0.01831402375709       -2.65236226960680
Cl           2.26368486793089        0.02597120652561        0.00730314742333
N            0.42978082781507       -0.10012750491144        1.68533549377704
C            1.66118654286130        0.79508171717095        1.91270452112313
C            1.68614418703160        2.38883478590863        1.32883275196957
C            0.08498321941868        2.42435777761074        0.75021252878226
C            0.15515620166681        2.39878986512513       -1.00036159002464
C           -1.43021312105985        1.85324787576701       -1.42388982241722
C           -2.38247397498584        1.36043312366654       -0.01955770243203
C           -1.33860575089439        1.64728973697100        1.33550191912100
C            2.29969413021683        0.97603576665642        3.47871060487849
C            1.68417865351282       -0.13707615573054        4.61696077659480
C            0.22405052623146       -0.99078485868104        4.37863053400723
C           -0.28328227692062       -0.85320974009124        2.78519802765577
C           -1.81150235329631       -1.53474501373174        2.66984522451712
C           -1.43173349442744       -1.86927527015751        1.04401769012841
C           -2.38801383460244       -1.25140856468636       -0.26511137753013
C           -1.32703384477385       -1.77961900590346       -1.52876366753882
C            0.18818188243152       -2.44741521952689       -1.03437090945643
C            0.19331523874606       -2.34270219673576        0.72297333543208
H            2.64687114280062        2.13113463917444        0.36569535774120
H            1.36120189287535        3.37800338084150        2.29026467023300
H            1.26501903965270        2.25119960790486       -1.80231962286838
H           -1.85945222583480        1.78487394888113       -2.70812408377879
H           -3.75049474168645        1.31234891049585       -0.05362429928262
H           -1.74391329198823        1.88520592739949        2.62333409643531
H            3.13303207438928        1.98091369655252        3.80697014409254
H            2.12509388888486       -0.07601997466558        5.89901158600180
H           -0.39896372000576       -1.79499902475338        5.24530205212233
H           -1.55293251586202       -2.84969242878855        3.12667433973100
H           -2.72635480525602       -0.48911750761440        2.68197745074859
H           -3.51557428140838       -0.55139531697267       -0.14060086598320
H           -1.73146712760772       -1.71665476862402       -2.81925674932948
H            1.14296327566895       -3.06281230917305       -1.78346521362838
H            1.19530642451781       -2.86178936765686        1.48304502292109
36
 energy: -56.059134961444 gnorm: 0.036988836236 xtb: 6.7.1 (edcfbbe)
Zr          -0.30238171103893        0.01998670205338       -0.29735797602002
Cl          -0.00054649965305        0.02373834021549       -2.71820671985629
Cl           2.29731823855927        0.02248095957920       -0.00834557398849
N            0.43930591990958       -0.11320207224993        1.67441851215455
C            1.73243071830547        0.77484278562139        1.86211224149364
C            1.74359723217047        2.43713055787766        1.32202528539543
C            0.07664040421134        2.45917256836357        0.77209835793231
C            0.17519343821948        2.42865405639054       -1.02726227344728
C           -1.45145722763541        1.86235981063630       -1.45542835208536
C           -2.42147185727587        1.31310019020329       -0.01563205581356
C           -1.34996868768265        1.59263644185472        1.37745505926698
C            2.34327707422710        1.00269191048816        3.48870110135711
C            1.71603707730375       -0.15594904203309        4.64424905457101
C            0.19948904237162       -1.01469142101520        4.43134884900090
C           -0.30534265503984       -0.88156496574561        2.79121011253471
C           -1.89124822273093       -1.54990885912871        2.71741045978563
C           -1.45569397095076       -1.88661753789862        1.04918869063995
C           -2.44443835976552       -1.23563234748945       -0.28381572560568
C           -1.34783218821802       -1.79322854957095       -1.56550683228687
C            0.22429513548750       -2.43394151781869       -1.05500129616937
C            0.23682177637616       -2.31582396536691        0.75058100972957
H            2.70724155416923        2.12257566977706        0.31172573569805
H            1.34459384571148        3.42893440351687        2.33729624883096
H            1.32441287398944        2.22497623388793       -1.85031557899151
H           -1.88177112491018        1.77253612241164       -2.78536004165025
H           -3.84164431546396        1.31567199184171       -0.05648168782208
H           -1.76809612212626        1.89303568611640        2.70280691773696
H            3.19046803250368        2.04718202159131        3.82670259300046
H            2.15201579484340       -0.07225210663135        5.97602186072307
H           -0.44204179116729       -1.85331693060846        5.31328094817225
H           -1.55099659788276       -2.91900703369365        3.14928178535732
H           -2.79042475125274       -0.42456626422776        2.68644453151320
H           -3.59141198034729       -0.49386811653473       -0.13360562657099
H           -1.75058190136946       -1.70821764224025       -2.90223853418584
H            1.20090229691831       -3.08733071457960       -1.82494722649327
H            1.25930450923363       -2.88061936559365        1.53176314609285
36
 energy: -55.713320403538 gnorm: 0.027137747006 xtb: 6.7.1 (edcfbbe)
Zr          -0.31160712572173        0.02184966888630       -0.31765644909479
Cl          -0.01021650988383        0.02975498064821       -2.77269198853353
Cl           2.32677468144822        0.01275691771625       -0.03513311832989
N            0.45048398567681       -0.12568264889442        1.66692843931066
C            1.80458685487560        0.75485383054908        1.81274538001093
C            1.79684678428318        2.48290601369169        1.31498807461385
C            0.06623928578251        2.48338903741688        0.79318609676688
C            0.19229712528207        2.44945836006456       -1.05148982724508
C           -1.47438030824516        1.86761774065191       -1.48396683939993
C           -2.46011380120332        1.26017653541014       -0.01203715437550
C           -1.36084489577458        1.52943804116060        1.41761780918423
C            2.38458143874728        1.03012113890572        3.49901903287243
C            1.74969941530661       -0.17845875636661        4.66892439616554
C            0.17446612120001       -1.03809146301416        4.48475344755795
C           -0.32690995887370       -0.91313768595449        2.79829267678728
C           -1.97019788976571       -1.56490295797151        2.76283507574173
C           -1.47608938191984       -1.89856808473483        1.05252614783994
C           -2.49350391339605       -1.21204918730800       -0.30340119064666
C           -1.36655408933217       -1.80377855700217       -1.60127090313173
C            0.26286648829477       -2.41030888961673       -1.07451030913393
C            0.28337150311511       -2.27903896796670        0.77595289471170
H            2.76490698876795        2.11094200846787        0.25711617376269
H            1.32705310074557        3.47656848655148        2.37873440668543
H            1.38074860755502        2.18712679586218       -1.89842879939487
H           -1.90263629360243        1.75403871294429       -2.86125077209543
H           -3.93751929661244        1.32730374615216       -0.05896470904320
H           -1.79376564252857        1.90546712969799        2.78170555926678
H            3.24847366586394        2.11645003762899        3.84702614031545
H            2.17751436265937       -0.06670815139548        6.05571687830633
H           -0.48481894566043       -1.91524969744904        5.38316273737875
H           -1.55308747950348       -2.98316943642911        3.16963184715648
H           -2.85044010153923       -0.35477837177334        2.68712043040135
H           -3.66055614500687       -0.43340855378944       -0.12798646562218
H           -1.76458661636987       -1.69203208932506       -2.98571168102114
H            1.25880839118333       -3.10915210009918       -1.86679256223215
H            1.32410459415204       -2.89973558331605        1.57992612446371
36
 energy: -55.397379778221 gnorm: 0.019427689289 xtb: 6.7.1 (edcfbbe)
Zr          -0.31948976326969        0.02242548881885       -0.33086272427067
Cl          -0.02280099820880        0.03497962025204       -2.81417729290238
Cl           2.35162598607678       -0.00603050950061       -0.07705192592984
N            0.46592628296567       -0.13745346907480        1.66295603550930
C            1.87603714444579        0.73613271888504        1.76908437674061
C            1.84402211740016        2.52345630449970        1.30752738175817
C            0.05469973079121        2.49396908841104        0.81177024410653
C            0.20498355059767        2.45787541995155       -1.07233639165536
C           -1.49899532935450        1.86730494672220       -1.50840574422856
C           -2.49812407236608        1.20401740533773       -0.00898591727432
C           -1.37169371492821        1.46127060251031        1.45365411651882
C            2.42204731981464        1.05691100200074        3.51193601187240
C            1.78234213792671       -0.20212274134113        4.69157223725123
C            0.14995253063178       -1.05795746602620        4.53612434145013